# ODT 1.0
# Table Start
# Title: mmArchive Data Table, Wed Nov 09 21:25:45 UTC 2022
# Columns: {Oxs_CGEvolve:evolver:Max mxHxm} {Oxs_CGEvolve:evolver:Total energy} {Oxs_CGEvolve:evolver:Delta E} {Oxs_CGEvolve:evolver:Bracket count} {Oxs_CGEvolve:evolver:Line min count} {Oxs_CGEvolve:evolver:Conjugate cycle count} {Oxs_CGEvolve:evolver:Cycle count} {Oxs_CGEvolve:evolver:Cycle sub count} {Oxs_CGEvolve:evolver:Energy calc count} Oxs_UniformExchange:exchange:Energy {Oxs_UniformExchange:exchange:Max Spin Ang} {Oxs_UniformExchange:exchange:Stage Max Spin Ang} {Oxs_UniformExchange:exchange:Run Max Spin Ang} Oxs_Demag:demag:Energy Oxs_FixedZeeman:zeeman:Energy Oxs_MinDriver::Iteration {Oxs_MinDriver::Stage iteration} Oxs_MinDriver::Stage Oxs_MinDriver::mx    Oxs_MinDriver::my    Oxs_MinDriver::mz   
# Units:                 A/m                                 J                                J                                 {}                                   {}                                        {}                                      {}                                   {}                                      {}                                     J                                      deg                                            deg                                              deg                                 J                          J                          {}                           {}                         {}                 {}                   {}                   {}           
                  0.095994494882199993               1.67436355178e-18                -1.5985218538400001e-32               239                                  217                                       5                                       229                                  197                                     457                                   1.3230744761900001e-18                     58.126412483300001                             66.250380596100001                               66.250380596100001                  5.3204291622e-19         -1.8075384063e-19            445                          445                        0                    0.359598340239       4.3655745685099999e-18  0.023177777734399999
# Table End
