# ODT 1.0
# Table Start
# Title: mmArchive Data Table, Wed Nov 09 23:03:38 UTC 2022
# Columns: {Oxs_CGEvolve:evolver:Max mxHxm} {Oxs_CGEvolve:evolver:Total energy} {Oxs_CGEvolve:evolver:Delta E} {Oxs_CGEvolve:evolver:Bracket count} {Oxs_CGEvolve:evolver:Line min count} {Oxs_CGEvolve:evolver:Conjugate cycle count} {Oxs_CGEvolve:evolver:Cycle count} {Oxs_CGEvolve:evolver:Cycle sub count} {Oxs_CGEvolve:evolver:Energy calc count} Oxs_FixedZeeman:zeeman:Energy Oxs_UniformExchange:exchange:Energy {Oxs_UniformExchange:exchange:Max Spin Ang} {Oxs_UniformExchange:exchange:Stage Max Spin Ang} {Oxs_UniformExchange:exchange:Run Max Spin Ang} Oxs_UniaxialAnisotropy:uniaxialanisotropy:Energy Oxs_DMI_Cnv_z:dmi:Energy Oxs_MinDriver::Iteration {Oxs_MinDriver::Stage iteration} Oxs_MinDriver::Stage Oxs_MinDriver::mx    Oxs_MinDriver::my    Oxs_MinDriver::mz   
# Units:                 A/m                                 J                                J                                 {}                                   {}                                        {}                                      {}                                   {}                                      {}                                  J                                J                                      deg                                            deg                                              deg                                              J                                    J                        {}                           {}                         {}                 {}                   {}                   {}           
                  0.071647080094199997              -1.5012967357699999e-17              -9.2444637330600007e-33               87                                   53                                        15                                      70                                   47                                      141                               -7.3185745955000002e-18              7.94252141409e-18                       38.2314688011                                  180                                              180                                              4.1251108878799997e-18                 -1.9762025064100001e-17      126                          126                        0                   -7.9888224919099995e-18  5.3585878861699997e-18  0.67018833329100003
# Table End
