# ODT 1.0
# Table Start
# Title: mmArchive Data Table, Wed Nov 09 16:22:06 UTC 2022
# Columns: {Oxs_RungeKuttaEvolve:evolver:Total energy} {Oxs_RungeKuttaEvolve:evolver:Energy calc count} {Oxs_RungeKuttaEvolve:evolver:Max dm/dt} Oxs_RungeKuttaEvolve:evolver:dE/dt {Oxs_RungeKuttaEvolve:evolver:Delta E} Oxs_UniformExchange:exchange:Energy {Oxs_UniformExchange:exchange:Max Spin Ang} {Oxs_UniformExchange:exchange:Stage Max Spin Ang} {Oxs_UniformExchange:exchange:Run Max Spin Ang} Oxs_Demag:demag:Energy Oxs_FixedZeeman:zeeman:Energy Oxs_TimeDriver::Iteration {Oxs_TimeDriver::Stage iteration} Oxs_TimeDriver::Stage Oxs_TimeDriver::mx   Oxs_TimeDriver::my   Oxs_TimeDriver::mz   {Oxs_TimeDriver::Last time step} {Oxs_TimeDriver::Simulation time}
# Units:                        J                                             {}                                         deg/ns                                 J/s                                   J                                     J                                      deg                                            deg                                              deg                                 J                          J                          {}                            {}                          {}                   {}                   {}                   {}                          s                                 s                
                       1.8537011545400002e-18                            43                                           233.58878781300001                   -2.0556784906400001e-10                 -2.33749737915e-22                    1.32623460468e-18                       57.807764946399999                             58.126412483300001                               58.126412483300001                  5.2746654986300002e-19       0                           6                             6                           0                     0.35161817147399999  0.00073504275951500003  0.0231575484626            1.1895462240600001e-12              9.9999999999999994e-12       
                       1.8509621478600002e-18                            80                                           381.97160520599999                   -3.2829599342900001e-10                 -4.9176187828200001e-22                  1.3335011030399999e-18                     58.288431970799998                             58.288431970799998                               58.288431970799998                  5.1746104481699995e-19       0                           12                            5                           1                     0.33595300202099998  0.0025216684078699998  0.023063765385999999        1.5259539962199999e-12              1.9999999999999999e-11       
                       1.8475080911899998e-18                            117                                          511.37078405599999                   -3.4521138842600002e-10                 -2.5212011362199999e-22                  1.34227994164e-18                       59.579436942299999                             59.579436942299999                               59.579436942299999                  5.0522814954900004e-19       0                           19                            6                           2                     0.31841690695500002  0.0058938388696099997  0.022815929061399998        7.2805490785300001e-13              3e-11                     
                       1.8443071254900002e-18                            154                                          600.47031383199999                   -2.8825671439800002e-10                 -2.5317380253899999e-22                  1.3492438594300001e-18                     60.745938159700003                             60.745938159700003                               60.745938159700003                  4.9506326605600003e-19       0                           26                            6                           3                     0.30313837006200001  0.0109600907073      0.022383280242600001        8.6874659507799996e-13              3.9999999999999998e-11       
                       1.84179297768e-18                              191                                          677.22219406600004                   -2.1581546676200001e-10                 -2.0182665631200001e-22                  1.3527355101999999e-18                     61.361008585900002                             61.361008585900002                               61.361008585900002                  4.8905746747699996e-19       0                           33                            6                           4                     0.29212680089300003  0.017468245165799999  0.0218560479705            9.2180522672000006e-13              5.0000000000000002e-11       
                       1.83993002881e-18                              234                                          697.51562379100005                   -1.6145669018600001e-10                 -1.3009584740500001e-22                  1.35316292163e-18                       61.279818214300001                             61.410275612500001                               61.410275612500001                  4.8676710717700003e-19       0                           40                            6                           5                     0.285660312877       0.024975953836999999  0.021396848794000001        7.9724365216600003e-13              6e-11                     
                       1.8384788172600001e-18                            271                                          675.69796843200004                   -1.33091914564e-10                   -1.36367567448e-22                    1.3519005962399999e-18                     60.6227133585                                  61.279818214300001                               61.410275612500001                  4.86578221025e-19         0                           47                            6                           6                     0.28296066936699998  0.033017272089200002  0.021129206138400001        1.0171239148e-12                 7.0000000000000004e-11       
                       1.8372163703599999e-18                            308                                          631.24079478399995                   -1.2132826452699999e-10                 -1.0298535697099999e-22                  1.3502085548999999e-18                     59.557437940900002                             60.6227133585                                    61.410275612500001                  4.8700781545900005e-19       0                           54                            6                           7                     0.28278536968399998  0.041188434412100003  0.0210756105491            8.4555646933700002e-13              7.9999999999999995e-11       
                       1.8360526573700001e-18                            345                                          576.26711327299995                   -1.11589296171e-10                   -9.9715300811400001e-23                  1.34871094837e-18                       58.1922950071                                  59.557437940900002                               61.410275612500001                  4.8734170900199996e-19       0                           61                            6                           8                     0.28383901395700001  0.049162454273999998  0.021181850978099999        8.8831522822000002e-13              8.9999999999999999e-11       
                       1.8350083221200002e-18                            382                                          523.58580034199997                   -9.7454059270399999e-11                 -1.01533361951e-22                    1.34751978381e-18                       59.443675528699998                             59.443675528699998                               61.410275612500001                  4.8748853830899997e-19       0                           68                            6                           9                     0.28501153578999999  0.056677846059000003  0.021372783750499998        1.0322021238e-12                 1e-10                     
                       1.8341115121300001e-18                            419                                          481.99388498500002                   -8.3195295457200004e-11                 -8.3089230659699996e-23                  1.3465842494500001e-18                     60.845024633999998                             60.845024633999998                               61.410275612500001                  4.87527262681e-19         0                           75                            6                           10                    0.285482975099       0.063549362235999995  0.0215900724351            9.8994827399399999e-13              1.0999999999999999e-10       
                       1.8333318037000001e-18                            456                                          458.652045853                        -7.4756540441600001e-11                 -7.5386574454200004e-23                  1.3459164005800001e-18                     61.693056140700001                             61.693056140700001                               61.693056140700001                  4.8741540311799999e-19       0                           82                            6                           11                    0.28474651489199998  0.069699816688999994  0.0218031365056            1.00347731916e-12                1.2e-10                   
                       1.83259743315e-18                              493                                          449.46445747500002                   -7.4086257545400003e-11                 -7.4078994124499995e-23                  1.3455688531900001e-18                     62.015391083600001                             62.015391083600001                               62.015391083600001                  4.87028579968e-19         0                           89                            6                           12                    0.282588838151       0.0751741029491      0.022000948650100001        9.9991207487999996e-13              1.2999999999999999e-10       
                       1.83183627962e-18                              530                                          491.96670974300002                   -7.9736705867200003e-11                 -7.9589497127799995e-23                  1.34552205959e-18                       61.8030596742                                  62.017536106400001                               62.017536106400001                  4.8631422003199999e-19       0                           96                            6                           13                    0.27904815921499998  0.080119673929900007  0.022175454407999999        1.0014250070399999e-12              1.4000000000000001e-10       
                       1.8309977491599999e-18                            567                                          543.60963774000004                   -8.9095264145900004e-11                 -8.8816057406300004e-23                  1.34568590102e-18                       61.028030282400003                             61.8030596742                                    62.017536106400001                  4.8531184813399999e-19       0                           103                           6                           14                    0.274356023349       0.084748540765099994  0.022311161163200002        1.00110680927e-12                1.5e-10                   
                       1.8300594054100001e-18                            604                                          591.50921346300004                   -9.9207050242199998e-11                 -9.9188115020599997e-23                  1.34599659425e-18                       59.674516362200002                             61.028030282400003                               62.017536106400001                  4.8406281116600004e-19       0                           110                           6                           15                    0.26886705627800001  0.089295795640899997  0.022388126223200001        1.0033378432300001e-12              1.5999999999999999e-10       
                       1.82902810774e-18                              641                                          628.47851253399995                   -1.07281637504e-10                   -1.07357602241e-22                    1.3464773857499999e-18                     57.756733656599998                             59.674516362200002                               62.017536106400001                  4.8255072199000001e-19       0                           117                           6                           16                    0.26298031599999999  0.093977987381200001  0.0223921888405            1.0025174098000001e-12              1.7000000000000001e-10       
                       1.8279346680999998e-18                            678                                          645.556301813                        -1.11436196629e-10                   -1.1174632838799999e-22                  1.3472040650300001e-18                     56.982858569100003                             57.756733656599998                               62.017536106400001                  4.80730603066e-19         0                           124                           6                           17                    0.25706054593900002  0.098953483857800006  0.022322355621599999        1.0025535015900001e-12              1.8e-10                   
                       1.8268222107199998e-18                            715                                          639.39896450399999                   -1.1110559364400001e-10                 -1.1160277166399999e-22                  1.3482190736199999e-18                     58.942446351599997                             58.942446351599997                               62.017536106400001                  4.7860313710300004e-19       0                           131                           6                           18                    0.25137823744299997  0.104292362986       0.022191409546100001        1.0022860390800001e-12              1.8999999999999999e-10       
                       1.8257335355899998e-18                            752                                          611.45966319599995                   -1.06840716132e-10                   -1.07493324155e-22                    1.34947031503e-18                       60.397235470799998                             60.397235470799998                               62.017536106400001                  4.7626322056799998e-19       0                           138                           6                           19                    0.24608592000599999  0.109965212095       0.022021807366800001        1.0022018725299999e-12              2.0000000000000001e-10       
                       1.8247026759000001e-18                            789                                          568.73314034500004                   -9.9747974660900001e-11                 -1.00489278456e-22                    1.35082457717e-18                       61.2672861255                                  61.2672861255                                    62.017536106400001                  4.7387809872800004e-19       0                           145                           6                           20                    0.24123048823599999  0.115855367849       0.021840225323499999        1.00211217737e-12                2.1e-10                   
                       1.82375192233e-18                              826                                          518.98402966900005                   -9.1011324429000002e-11                 -9.1787337337299996e-23                  1.35213202306e-18                       61.564180753899997                             61.564180753899997                               62.017536106400001                  4.7161989927299995e-19       0                           152                           6                           21                    0.23678395306899999  0.12178975554099999  0.021672987637199999        1.00205156644e-12                2.1999999999999999e-10       
                       1.8228922092299999e-18                            863                                          477.420673953                        -8.1712614612999995e-11                 -8.2471418223199996e-23                  1.35327306935e-18                       61.359150554300001                             61.564180753899997                               62.017536106400001                  4.6961913988000004e-19       0                           159                           6                           22                    0.232672531908       0.12757693361        0.021543293962800001        1.0019945130600001e-12              2.3000000000000001e-10       
                       1.8221241523499999e-18                            900                                          456.38834433300002                   -7.2840203761400003e-11                 -7.3538700945500002e-23                  1.35415514849e-18                       60.735386377300003                             61.359150554300001                               62.017536106400001                  4.6796900385699995e-19       0                           166                           6                           23                    0.22879505943        0.13304180833099999  0.0214699801274            1.0019553102299999e-12              2.4e-10                   
                       1.8214388673399999e-18                            937                                          438.95559168800003                   -6.5300480027700006e-11                 -6.5899905188800006e-23                  1.3546927503300001e-18                     59.765661689700003                             60.735386377300003                               62.017536106400001                  4.6674611701600003e-19       0                           173                           6                           24                    0.22503362540999999  0.138051666076       0.021466607826899999        1.00193395396e-12                2.5000000000000002e-10       
                       1.8208191362100001e-18                            974                                          426.11519481099998                   -5.9836745191899994e-11                 -6.0311123294799998e-23                  1.35481629836e-18                       59.261480935400002                             59.765661689700003                               62.017536106400001                  4.6600283784499996e-19       0                           180                           6                           25                    0.221263238201       0.14253237623699999  0.021539536625400001        1.0019351358699999e-12              2.5999999999999998e-10       
                       1.8202415378200001e-18                            1011                                         422.82288619299999                   -5.6932414972400003e-11                 -5.7268946790700004e-23                  1.3545112981299999e-18                     60.341886063700002                             60.341886063700002                               62.017536106400001                  4.6573023969799997e-19       0                           187                           6                           26                    0.217364034234       0.14647485945499999  0.021684719907300001        1.00195058148e-12                2.7e-10                   
                       1.8196793712100001e-18                            1048                                         425.54011577300003                   -5.6758727646700002e-11                 -5.69611424282e-23                    1.3538517210600001e-18                     61.1032216085                                  61.1032216085                                    62.017536106400001                  4.6582765014599999e-19       0                           194                           6                           27                    0.21323450089900001  0.14993178521        0.021884835438700002        1.00197345961e-12                2.8000000000000002e-10       
                       1.8191056478199999e-18                            1085                                         436.73041660799998                   -5.9213648885999998e-11                 -5.92952125436e-23                    1.35299640678e-18                       61.560673936500002                             61.560673936500002                               62.017536106400001                  4.6610924103700003e-19       0                           201                           6                           28                    0.20880158170900001  0.15300528448199999  0.0221094437943            1.0019914608999999e-12              2.8999999999999998e-10       
                       1.8184954852799998e-18                            1122                                         468.506832223                        -6.3987207670600002e-11                 -6.3970757594200003e-23                  1.3521498729499999e-18                     61.717586411699997                             61.717586411699997                               62.017536106400001                  4.66345612328e-19         0                           208                           6                           29                    0.204024378994       0.15582836513600001  0.022319815583900001        1.0019919942400001e-12              3e-10                     
                       1.8178279567700001e-18                            1159                                         505.10804934999999                   -7.0594494445100002e-11                 -7.0509275259799999e-23                  1.35151154759e-18                       61.560247327100001                             61.717586411699997                               62.017536106400001                  4.6631640917299997e-19       0                           215                           6                           30                    0.19889122257299999  0.15854381321899999  0.022477423815500001        1.0019594525799999e-12              3.1000000000000002e-10       
                       1.8170882067499999e-18                            1196                                         539.78823888800002                   -7.8282022891100003e-11                 -7.8171630584599998e-23                  1.3512355579e-18                        61.0561553135                                  61.560247327100001                               62.017536106400001                  4.65852648846e-19         0                           222                           6                           31                    0.193413158058       0.16128332600100001  0.0225529769801            1.00187233871e-12                3.1999999999999998e-10       
                       1.8162708348900001e-18                            1233                                         566.25393305900002                   -8.5888500784600004e-11                 -8.5815012790000002e-23                  1.35140389529e-18                       60.176247353299999                             61.0561553135                                    62.017536106400001                  4.6486693960000001e-19       0                           229                           6                           32                    0.187618620396       0.164147562006       0.022532946012             1.0017078365400001e-12              3.3e-10                   
                       1.8153843908299999e-18                            1270                                         578.307134819                        -9.1808005744299994e-11                 -9.1843886881399996e-23                  1.352003209e-18                         58.912980399299997                             60.176247353299999                               62.017536106400001                  4.6338118182799997e-19       0                           236                           6                           33                    0.18155287860200001  0.167187260817       0.022422519167199999        1.0014405204099999e-12              3.4000000000000001e-10       
                       1.8144542847400001e-18                            1307                                         569.39504992599996                   -9.4377261948299994e-11                 -9.4581109326599999e-23                  1.35290336605e-18                       57.881959179699997                             58.912980399299997                               62.017536106400001                  4.6155091868900003e-19       0                           243                           6                           34                    0.17528181583499999  0.17038818785099999  0.0222457068408            1.0010607693600001e-12              3.4999999999999998e-10       
                       1.8135197098300002e-18                            1344                                         538.59139165900001                   -9.2645021937699994e-11                 -9.3096404480000002e-23                  1.35386079005e-18                       59.833444114800002                             59.833444114800002                               62.017536106400001                  4.5965891977799995e-19       0                           250                           6                           35                    0.16889486721999999  0.173666741924       0.022043079442599998        1.0013961468500001e-12              3.6e-10                   
                       1.8126228970500001e-18                            1381                                         490.69050107700002                   -8.7004800346099996e-11                 -8.7605070571300004e-23                  1.3545783684099999e-18                     61.145154624900002                             61.145154624900002                               62.017536106400001                  4.5804452864099997e-19       0                           257                           6                           36                    0.162500186303       0.17688373306899999  0.0218659010401            1.0012645862400001e-12              3.7000000000000001e-10       
                       1.8117956934299999e-18                            1418                                         435.37217422499998                   -7.9043267179200005e-11                 -7.9663479038300004e-23                  1.3548179143099999e-18                     61.733410464000002                             61.733410464000002                               62.017536106400001                  4.5697777912700001e-19       0                           264                           6                           37                    0.156208859373       0.17987725377899999  0.021765154086899999        1.00073599727e-12                3.7999999999999998e-10       
                       1.8110515166000001e-18                            1455                                         440.74447777199998                   -7.07029593318e-11                   -7.1263483277699995e-23                  1.3545022867299999e-18                     61.6206059756                                  61.769501784200003                               62.017536106400001                  4.5654922987500002e-19       0                           271                           6                           38                    0.15011234773900001  0.18250480931499999  0.0217770630316            1.00025724231e-12                3.9e-10                   
                       1.8103859704099999e-18                            1492                                         445.71096074299999                   -6.35123070505e-11                   -6.39626009689e-23                    1.3537353869299999e-18                     60.9052900991                                  61.6206059756                                    62.017536106400001                  4.5665058347900005e-19       0                           278                           6                           39                    0.14426264871300001  0.184679012866       0.0219108990698            9.9980754455200002e-13              4.0000000000000001e-10       
                       1.8097828721899999e-18                            1529                                         451.939135357                        -5.8294173662300005e-11                 -5.8616200527599994e-23                  1.3527334937e-18                        59.709506535000003                             60.9052900991                                    62.017536106400001                  4.5704937849599996e-19       0                           285                           6                           40                    0.13866354930300001  0.186385432938       0.0221454401264            9.9940962540900009e-13              4.0999999999999998e-10       
                       1.80922102076e-18                              1566                                         460.09972658700002                   -5.5260087920499998e-11                 -5.5458853316099997e-23                  1.3517287340499999e-18                     58.143072119300001                             59.709506535000003                               62.017536106400001                  4.5749228670400002e-19       0                           292                           6                           41                    0.133275251229       0.18768092825499999  0.022436027461900002        9.9905729335699999e-13              4.2e-10                   