# ODT 1.0
# Table Start
# Title: mmArchive Data Table, Wed Nov 09 15:54:05 UTC 2022
# Columns: {Oxs_CGEvolve:evolver:Max mxHxm} {Oxs_CGEvolve:evolver:Total energy} {Oxs_CGEvolve:evolver:Delta E} {Oxs_CGEvolve:evolver:Bracket count} {Oxs_CGEvolve:evolver:Line min count} {Oxs_CGEvolve:evolver:Conjugate cycle count} {Oxs_CGEvolve:evolver:Cycle count} {Oxs_CGEvolve:evolver:Cycle sub count} {Oxs_CGEvolve:evolver:Energy calc count} Oxs_UniformExchange:exchange:Energy {Oxs_UniformExchange:exchange:Max Spin Ang} {Oxs_UniformExchange:exchange:Stage Max Spin Ang} {Oxs_UniformExchange:exchange:Run Max Spin Ang} Oxs_Demag:demag:Energy Oxs_FixedZeeman:zeeman:Energy Oxs_MinDriver::Iteration {Oxs_MinDriver::Stage iteration} Oxs_MinDriver::Stage Oxs_MinDriver::mx    Oxs_MinDriver::my    Oxs_MinDriver::mz   
# Units:                 A/m                                 J                                J                                 {}                                   {}                                        {}                                      {}                                   {}                                      {}                                     J                                      deg                                            deg                                              deg                                 J                          J                          {}                           {}                         {}                 {}                   {}                   {}           
                  0.095994495111799999               1.67436355178e-18                 1.67436355178e-18                 0                                    0                                         1                                       1                                    0                                       1                                     1.3230744761900001e-18                     58.126412483300001                             58.126412483300001                               58.126412483300001                  5.3204291622e-19         -1.8075384063e-19            0                            0                          0                    0.359598340239       1.16415321827e-17    0.023177777734399999
# Table End
