# ODT 1.0
# Table Start
# Title: mmArchive Data Table, Wed Nov 09 21:26:00 UTC 2022
# Columns: {Oxs_RungeKuttaEvolve:evolver:Total energy} {Oxs_RungeKuttaEvolve:evolver:Energy calc count} {Oxs_RungeKuttaEvolve:evolver:Max dm/dt} Oxs_RungeKuttaEvolve:evolver:dE/dt {Oxs_RungeKuttaEvolve:evolver:Delta E} Oxs_UniformExchange:exchange:Energy {Oxs_UniformExchange:exchange:Max Spin Ang} {Oxs_UniformExchange:exchange:Stage Max Spin Ang} {Oxs_UniformExchange:exchange:Run Max Spin Ang} Oxs_Demag:demag:Energy Oxs_FixedZeeman:zeeman:Energy Oxs_TimeDriver::Iteration {Oxs_TimeDriver::Stage iteration} Oxs_TimeDriver::Stage Oxs_TimeDriver::mx   Oxs_TimeDriver::my   Oxs_TimeDriver::mz   {Oxs_TimeDriver::Last time step} {Oxs_TimeDriver::Simulation time}
# Units:                        J                                             {}                                         deg/ns                                 J/s                                   J                                     J                                      deg                                            deg                                              deg                                 J                          J                          {}                            {}                          {}                   {}                   {}                   {}                          s                                 s                
                       1.7655117938700002e-18                            43                                           1.22592247304                        -7.0189779182299999e-16                 -9.3782018728899998e-28                  1.36567721164e-18                       57.077104433800002                             57.079226160499999                               57.079226160499999                  3.99834582236e-19         0                           6                             6                           0                     4.5597266520399999e-05 -0.00021802143243099999  0.022938059634199998        1.32842957982e-12                9.9999999999999994e-12       
                       1.7655117876299999e-18                            80                                           1.20493395543                        -6.7815603144400001e-16                 -6.6801832980400003e-28                  1.36567722841e-18                       57.074755521999997                             57.077104433800002                               57.079226160499999                  3.9983455921400001e-19       0                           13                            6                           1                     6.1796936470900001e-05 -0.000208565989922    0.0229380580561            9.5031908794399991e-13              1.9999999999999999e-11       
                       1.7655117817100001e-18                            117                                          1.1770716321400001                   -6.8365952323099997e-16                 -6.2259570057699999e-28                  1.36567724445e-18                       57.0721346853                                  57.074755521999997                               57.079226160499999                  3.9983453725800002e-19       0                           20                            6                           2                     7.6809436321700005e-05 -0.00019806856975299999  0.022938056551000001        8.6562530030800001e-13              3e-11                     
                       1.7655117760700002e-18                            154                                          1.15601055343                        -6.9932276269800003e-16                 -6.6414339983100004e-28                  1.36567725976e-18                       57.0693459835                                  57.0721346853                                    57.079226160499999                  3.9983451631700002e-19       0                           27                            6                           3                     9.0583185793599997e-05 -0.00018665179601300001  0.022938055115400001        8.8552541532499995e-13              3.9999999999999998e-11       
                       1.76551177061e-18                              191                                          1.1258578347599999                   -6.5177969114000002e-16                 -7.1171837447499999e-28                  1.36567727427e-18                       57.066338007100001                             57.0693459835                                    57.079226160499999                  3.9983449633999999e-19       0                           34                            6                           4                     0.000103077771892   -0.000174439143762    0.022938053746300001        1.0235013529999999e-12              5.0000000000000002e-11       
                       1.7655117654400001e-18                            228                                          1.1028473080700001                   -6.2580080847799996e-16                 -6.5697894308399998e-28                  1.3656772881500001e-18                     57.063218118899997                             57.066338007100001                               57.079226160499999                  3.9983447728799999e-19       0                           41                            6                           5                     0.00011426371982699999 -0.00016155402398200001  0.022938052440400002        9.8047014476400008e-13              6e-11                     
                       1.76551176049e-18                              265                                          1.07180227507                        -5.9548043642800004e-16                 -6.3360092479999998e-28                  1.36567730137e-18                       57.059953387900002                             57.063218118899997                               57.079226160499999                  3.99834459116e-19         0                           48                            6                           6                     0.000124122196537   -0.00014811891043600001  0.0229380511949            9.942625343479999e-13              7.0000000000000004e-11       
                       1.7655117557699998e-18                            302                                          1.0474074768599999                   -5.6892916554399997e-16                 -6.0238613161800002e-28                  1.3656773139899999e-18                     57.058441672999997                             57.059953387900002                               57.079226160499999                  3.9983444178500002e-19       0                           55                            6                           7                     0.00013264465286199999 -0.00013425451462800001  0.022938050006899999        9.8894034448999992e-13              7.9999999999999995e-11       
                       1.7655117512699998e-18                            339                                          1.0159347861700001                   -5.4189232625900001e-16                 -5.7591814379500003e-28                  1.3656773260200001e-18                     57.0600413863                                  57.0600413863                                    57.079226160499999                  3.9983442525600002e-19       0                           62                            6                           8                     0.000139832409104   -0.00012007901056400001  0.0229380488739            9.9362810136500007e-13              8.9999999999999999e-11       
                       1.7655117469800001e-18                            376                                          0.99054828847099996                  -5.1710151038699996e-16                 -5.4779941263e-28                     1.3656773374900001e-18                     57.061326395099996                             57.061326395099996                               57.079226160499999                  3.9983440948999998e-19       0                           69                            6                           9                     0.000145696189835   -0.00010570731431399999  0.022938047793199998        9.9110646496799997e-13              1e-10                     
                       1.7655117428900001e-18                            413                                          0.95933569257600004                  -4.9243923928799999e-16                 -5.2245767426500004e-28                  1.36567734843e-18                       57.062291562200002                             57.062291562200002                               57.079226160499999                  3.9983439445399999e-19       0                           76                            6                           10                    0.00015025561349299999 -9.1250419331299998e-05  0.022938046762600001        9.941552021299999e-13              1.0999999999999999e-10       
                       1.7655117389799999e-18                            450                                          0.93350406345500003                  -4.6928767463599996e-16                 -4.9645650977900002e-28                  1.3656773588699999e-18                     57.062971505100002                             57.062971505100002                               57.079226160499999                  3.9983438011299999e-19       0                           83                            6                           11                    0.00015353864234099999 -7.6814790999900007e-05  0.0229380457796            9.9263390160200006e-13              1.2e-10                   
                       1.7655117352599999e-18                            487                                          0.903252352491                       -4.46654831889e-16                   -4.7251516156200004e-28                  1.36567736882e-18                       57.063333245000003                             57.063333245000003                               57.079226160499999                  3.9983436643500002e-19       0                           90                            6                           12                    0.00015558099878    -6.2501820900500005e-05  0.022938044841999999        9.9428074450599997e-13              1.2999999999999999e-10       
                       1.7655117317000001e-18                            524                                          0.87768709389699995                  -4.2522363716300002e-16                 -4.4879754443599996e-28                  1.3656773783099999e-18                     57.063442590800001                             57.063442648600002                               57.079226160499999                  3.9983435338999998e-19       0                           97                            6                           13                    0.00015642555334000001 -4.8407342600800003e-05  0.0229380439478            9.9323341345899995e-13              1.4000000000000001e-10       
                       1.76551172832e-18                              561                                          0.85656604939400005                  -4.0479217024599998e-16                 -4.2649297046200003e-28                  1.36567738737e-18                       57.063247112299997                             57.063442590800001                               57.079226160499999                  3.9983434094799998e-19       0                           104                           6                           14                    0.00015612169038899999 -3.4621209166300002e-05  0.022938043094899999        9.9243018202599997e-13              1.5e-10                   
                       1.7655117250900002e-18                            598                                          0.84340610641900005                  -3.86378948573e-16                   -4.0507608446200002e-28                  1.3656773960100001e-18                     57.0628327302                                  57.063247112299997                               57.079226160499999                  3.99834329081e-19         0                           111                           6                           15                    0.00015472465673700001 -2.1226932571700001e-05  0.022938042281499999        9.8727356217999998e-13              1.5999999999999999e-10       
                       1.7655117220099998e-18                            635                                          0.82885837455800004                  -3.6901619942400002e-16                 -3.8671301007299999e-28                  1.36567740424e-18                       57.062137981600003                             57.0628327302                                    57.079226160499999                  3.9983431776200002e-19       0                           118                           6                           16                    0.00015229489881600001 -8.3013849178099999e-06  0.022938041505699999        9.8616678159400009e-13              1.7000000000000001e-10       
                       1.76551171907e-18                              672                                          0.81562934006800003                  -3.5241574895499999e-16                 -3.6979210170800001e-28                  1.3656774121e-18                        57.061257297600001                             57.062137981600003                               57.079226160499999                  3.9983430696699999e-19       0                           125                           6                           17                    0.00014889739354000001  4.0854397488299996e-06  0.0229380407657            9.8642845767400009e-13              1.8e-10                   
                       1.7655117162699998e-18                            709                                          0.80003331772999997                  -3.3652607116800001e-16                 -3.5368455195299998e-28                  1.3656774196000001e-18                     57.060130031299998                             57.061257297600001                               57.079226160499999                  3.9983429666999999e-19       0                           132                           6                           18                    0.00014460097787699999  1.58706035124e-05    0.022938040060000001        9.8676487146300005e-13              1.8999999999999999e-10       
                       1.7655117135900001e-18                            746                                          0.78629689271299996                  -3.21240072649e-16                   -3.3840317678400002e-28                  1.36567742674e-18                       57.058848280299998                             57.060130031299998                               57.079226160499999                  3.9983428685000002e-19       0                           139                           6                           19                    0.00013947768214300001  2.69983448169e-05    0.022938039386899998        9.8776578006500009e-13              2.0000000000000001e-10       
                       1.7655117110500001e-18                            783                                          0.76951281016499995                  -3.06878027355e-16                   -3.2354140802200001e-28                  1.36567743356e-18                       57.057361304799997                             57.058848280299998                               57.079226160499999                  3.9983427748300001e-19       0                           146                           6                           20                    0.00013360207123099999  3.7420141882099999e-05  0.0229380387449            9.8707112435400001e-13              2.1e-10                   
                       1.7655117086099998e-18                            820                                          0.75498867360900002                  -2.9297695010600002e-16                 -3.0972929891999999e-28                  1.3656774400599999e-18                     57.055749217399999                             57.057361304799997                               57.079226160499999                  3.9983426855000002e-19       0                           153                           6                           21                    0.00012705059861099999  4.7094722274599999e-05  0.022938038132500001        9.8858318449999993e-13              2.1999999999999999e-10       
                       1.7655117063000001e-18                            857                                          0.73706072524300004                  -2.7973040806700002e-16                 -2.96109303292e-28                    1.36567744627e-18                       57.053978484700004                             57.055749217399999                               57.079226160499999                  3.9983426002899998e-19       0                           160                           6                           22                    0.000119900976455    5.5988020304800003e-05  0.0229380375485            9.8889925054199993e-13              2.3000000000000001e-10       
                       1.76551170408e-18                              894                                          0.72164003241399999                  -2.6720952243199999e-16                 -2.8303711053500002e-28                  1.3656774521799999e-18                     57.052109871299997                             57.053978484700004                               57.079226160499999                  3.9983425190299999e-19       0                           167                           6                           23                    0.000112231566352    6.4073085624600002e-05  0.022938036991499999        9.8879587584499996e-13              2.4e-10                   
                       1.76551170197e-18                              931                                          0.70277177723799999                  -2.5492159108599998e-16                 -2.7060152086699998e-28                  1.3656774578200001e-18                     57.050131878000002                             57.052109871299997                               57.079226160499999                  3.9983424415200002e-19       0                           174                           6                           24                    0.000104120793206    7.1329945366699996e-05  0.022938036460200002        9.9097472889199996e-13              2.5000000000000002e-10       
                       1.7655116999600002e-18                            968                                          0.68648196853200005                  -2.4338528114700002e-16                 -2.58072273766e-28                    1.3656774632000001e-18                     57.048081403200001                             57.050131878000002                               57.079226160499999                  3.9983423675900001e-19       0                           181                           6                           25                    9.5646586206e-05     7.7745423375100002e-05  0.0229380359535            9.900987491249999e-13              2.5999999999999998e-10       
                       1.7655116980400002e-18                            1005                                         0.66701193739099995                  -2.3206160111900001e-16                 -2.4633467575099999e-28                  1.3656774683300001e-18                     57.046529347400003                             57.048081403200001                               57.079226160499999                  3.9983422970899998e-19       0                           188                           6                           26                    8.6885848806699995e-05  8.33129194847e-05    0.022938035470299999        9.9215849758799993e-13              2.7e-10                   
                       1.76551169621e-18                              1042                                         0.650045247075                       -2.2133438233900001e-16                 -2.3452075709e-28                     1.36567747323e-18                       57.047580352600001                             57.047580352600001                               57.079226160499999                  3.99834222985e-19         0                           195                           6                           27                    7.7913960849500006e-05  8.8032152428399994e-05  0.022938035009300001        9.9143594920699991e-13              2.8000000000000002e-10       
                       1.7655116944700001e-18                            1079                                         0.63039132339399995                  -2.1086620550599999e-16                 -2.2342245330300002e-28                  1.3656774778999999e-18                     57.048419397000004                             57.048419397000004                               57.079226160499999                  3.9983421657100001e-19       0                           202                           6                           28                    6.8804314260699997e-05  9.1908869808800006e-05  0.022938034569699998        9.9291033450200004e-13              2.8999999999999998e-10       
                       1.7655116928000001e-18                            1116                                         0.61308919361600001                  -2.0090260511599999e-16                 -2.1245678868799999e-28                  1.3656774823500001e-18                     57.049077555499998                             57.049077555499998                               57.079226160499999                  3.9983421045399998e-19       0                           209                           6                           29                    5.9627884544799999e-05  9.4954528677499998e-05  0.022938034150400001        9.9236794309499995e-13              3e-10                     
                       1.7655116912100001e-18                            1153                                         0.59371170243600002                  -1.91181807887e-16                   -2.0214404611399998e-28                  1.36567748659e-18                       57.049522739799997                             57.049522739799997                               57.079226160499999                  3.9983420462000001e-19       0                           216                           6                           30                    5.0452839110899997e-05  9.7185950438100007e-05  0.022938033750499999        9.9366510185999997e-13              3.1000000000000002e-10       
                       1.7655116897000001e-18                            1190                                         0.57651061507099999                  -1.8195304683499999e-16                 -1.9204719893699999e-28                  1.3656774906399999e-18                     57.049804114700002                             57.049804114700002                               57.079226160499999                  3.99834199056e-19         0                           223                           6                           31                    4.13441837022e-05    9.8624953570099994e-05  0.022938033369100001        9.9293083480000006e-13              3.1999999999999998e-10       
                       1.7655116882499998e-18                            1227                                         0.55787783008299996                  -1.72981589594e-16                   -1.8261450310300001e-28                  1.3656774944999999e-18                     57.0498799541                                  57.049889660200002                               57.079226160499999                  3.99834193748e-19         0                           230                           6                           32                    3.2363447612300003e-05  9.9297967944800004e-05  0.0229380330053            9.9402012983e-13                 3.3e-10                   
                       1.7655116868700001e-18                            1264                                         0.54814136005799996                  -1.6449200891400001e-16                 -1.73432221402e-28                    1.36567749819e-18                       57.049809351199997                             57.049889611700003                               57.079226160499999                  3.9983418868599999e-19       0                           237                           6                           33                    2.3568408048200001e-05  9.9235634193899999e-05  0.022938032658299998        9.9312118129099995e-13              3.4000000000000001e-10       
                       1.7655116855599999e-18                            1301                                         0.53908596994500002                  -1.56780917768e-16                   -1.64851149123e-28                    1.3656775017000001e-18                     57.049548648200002                             57.049809351199997                               57.079226160499999                  3.9983418385900002e-19       0                           244                           6                           34                    1.5012853967300001e-05  9.8472391748999995e-05  0.0229380323274            9.8980568723200008e-13              3.4999999999999998e-10       
                       1.7655116843100001e-18                            1338                                         0.53036249126199997                  -1.49926905687e-16                   -1.5716242000999999e-28                  1.36567750505e-18                       57.049158680300003                             57.049548648200002                               57.079226160499999                  3.9983417925399998e-19       0                           251                           6                           35                    6.7463889608899996e-06  9.7046058969300003e-05  0.022938032011799999        9.8510538307700003e-13              3.6e-10                   
                       1.7655116831100002e-18                            1375                                         0.52084264003699998                  -1.43228683634e-16                   -1.5064871149700001e-28                  1.36567750825e-18                       57.048600286899998                             57.049158680300003                               57.079226160499999                  3.9983417486199999e-19       0                           258                           6                           36                   -1.1857268946899999e-06  9.4997408668499999e-05  0.0229380317108            9.86986269753e-13                3.7000000000000001e-10       
                       1.7655116819699999e-18                            1412                                         0.51184745800099996                  -1.3694492372e-16                    -1.44162473077e-28                    1.3656775113000001e-18                     57.047929767799999                             57.048600286899998                               57.079226160499999                  3.99834170673e-19         0                           265                           6                           37                   -8.7426972654200003e-06  9.2369742368999996e-05  0.0229380314236            9.8611186776099995e-13              3.7999999999999998e-10       
                       1.7655116808800002e-18                            1449                                         0.50166686740300004                  -1.3084272568800001e-16                 -1.38129135678e-28                    1.3656775142099999e-18                     57.047117371500001                             57.047929767799999                               57.079226160499999                  3.9983416667799999e-19       0                           272                           6                           38                   -1.58882723946e-05    8.9208466199099999e-05  0.0229380311498            9.8753371952399999e-13              3.9e-10                   
                       1.7655116798500001e-18                            1486                                         0.49218815400900001                  -1.2507559150400001e-16                 -1.3218039526899999e-28                  1.3656775169800001e-18                     57.046209437900004                             57.047117371500001                               57.079226160499999                  3.99834162867e-19         0                           279                           6                           39                   -2.2590796051499999e-05  8.5560671590499996e-05  0.022938030888600001        9.8729509772599996e-13              4.0000000000000001e-10       
                       1.7655116788600001e-18                            1523                                         0.48128154735099998                  -1.1946931768199999e-16                 -1.2654322313200001e-28                  1.3656775196299999e-18                     57.045189684500002                             57.046209437900004                               57.079226160499999                  3.9983415923300001e-19       0                           286                           6                           40                   -2.8823217580499999e-05  8.1474723262800006e-05  0.0229380306395            9.8884326327199995e-13              4.0999999999999998e-10       