# ODT 1.0
# Table Start
# Title: mmArchive Data Table, Wed Nov 09 22:40:32 UTC 2022
# Columns: {Oxs_CGEvolve:evolver:Max mxHxm} {Oxs_CGEvolve:evolver:Total energy} {Oxs_CGEvolve:evolver:Delta E} {Oxs_CGEvolve:evolver:Bracket count} {Oxs_CGEvolve:evolver:Line min count} {Oxs_CGEvolve:evolver:Conjugate cycle count} {Oxs_CGEvolve:evolver:Cycle count} {Oxs_CGEvolve:evolver:Cycle sub count} {Oxs_CGEvolve:evolver:Energy calc count} Oxs_FixedZeeman:zeeman:Energy Oxs_UniformExchange:exchange:Energy {Oxs_UniformExchange:exchange:Max Spin Ang} {Oxs_UniformExchange:exchange:Stage Max Spin Ang} {Oxs_UniformExchange:exchange:Run Max Spin Ang} Oxs_UniaxialAnisotropy:uniaxialanisotropy:Energy Oxs_DMI_Cnv_z:dmi:Energy Oxs_MinDriver::Iteration {Oxs_MinDriver::Stage iteration} Oxs_MinDriver::Stage Oxs_MinDriver::mx    Oxs_MinDriver::my    Oxs_MinDriver::mz   
# Units:                 A/m                                 J                                J                                 {}                                   {}                                        {}                                      {}                                   {}                                      {}                                  J                                J                                      deg                                            deg                                              deg                                              J                                    J                        {}                           {}                         {}                 {}                   {}                   {}           
                  0.085596929934800003              -1.6804851387599999e-17              -8.4740917552999999e-31               78                                   39                                        22                                      61                                   24                                      118                               -1.31897666346e-17                1.2073091724499999e-18                     20.535249321799999                             39.799596529399999                               39.799596529399999                               1.61327751055e-18                   -6.43567143603e-18        103                          103                        0                    0                   -2.1100330352799999e-08  0.95418934460000004
# Table End
