# ODT 1.0
# Table Start
# Title: mmArchive Data Table, Wed Nov 09 21:26:14 UTC 2022
# Columns: {Oxs_RungeKuttaEvolve:evolver:Total energy} {Oxs_RungeKuttaEvolve:evolver:Energy calc count} {Oxs_RungeKuttaEvolve:evolver:Max dm/dt} Oxs_RungeKuttaEvolve:evolver:dE/dt {Oxs_RungeKuttaEvolve:evolver:Delta E} Oxs_UniformExchange:exchange:Energy {Oxs_UniformExchange:exchange:Max Spin Ang} {Oxs_UniformExchange:exchange:Stage Max Spin Ang} {Oxs_UniformExchange:exchange:Run Max Spin Ang} Oxs_Demag:demag:Energy Oxs_FixedZeeman:zeeman:Energy Oxs_TimeDriver::Iteration {Oxs_TimeDriver::Stage iteration} Oxs_TimeDriver::Stage Oxs_TimeDriver::mx   Oxs_TimeDriver::my   Oxs_TimeDriver::mz   {Oxs_TimeDriver::Last time step} {Oxs_TimeDriver::Simulation time}
# Units:                        J                                             {}                                         deg/ns                                 J/s                                   J                                     J                                      deg                                            deg                                              deg                                 J                          J                          {}                            {}                          {}                   {}                   {}                   {}                          s                                 s                
                       1.7655116584499999e-18                            43                                           8.9428657074799998e-06                  -3.7042523028999998e-26                  0                                    1.36567757419e-18                       57.026262219800003                             57.026262237899999                               57.026262237899999                  3.99834084264e-19         0                           6                             6                           0                    -4.9129885155699999e-10  1.53841493448e-09    0.022938025500799999        1.3679796299300001e-12              9.9999999999999994e-12       
                       1.7655116584499999e-18                            80                                           8.7499568919200003e-06                  -3.5770564992199998e-26                 -3.5072389437099998e-35                  1.36567757419e-18                       57.026262199999998                             57.026262219800003                               57.026262237899999                  3.99834084264e-19         0                           13                            6                           1                    -6.01091748103e-10    1.4581491152099999e-09  0.022938025500799999        9.5379874593700002e-13              1.9999999999999999e-11       
                       1.7655116584499999e-18                            117                                          8.5712545453799995e-06                  -3.61085672442e-26                   -5.6388671509899996e-35                  1.36567757419e-18                       57.026262178700001                             57.026262199999998                               57.026262237899999                  3.99834084264e-19         0                           20                            6                           2                    -7.0154517888999998e-10  1.3712529384099999e-09  0.022938025500799999        8.66642448344e-13                3e-11                     
                       1.7655116584499999e-18                            154                                          8.3902605455199997e-06                  -3.7120842979799998e-26                  5.4228621593199995e-35                  1.36567757419e-18                       57.026262156199998                             57.026262178700001                               57.026262237899999                  3.99834084264e-19         0                           27                            6                           3                    -7.9237881582199998e-10  1.2786492210600001e-09  0.022938025500799999        8.8013437688700003e-13              3.9999999999999998e-11       
                       1.7655116584499999e-18                            191                                          8.1669774934899996e-06                  -3.4467803076799998e-26                 -4.3542058847399998e-35                  1.36567757419e-18                       57.026262132500001                             57.026262156199998                               57.026262237899999                  3.99834084264e-19         0                           34                            6                           4                    -8.7339305318900001e-10  1.18125865411e-09    0.022938025500799999        1.02949204472e-12                5.0000000000000002e-11       
                       1.7655116584499999e-18                            228                                          7.9530895697199999e-06                  -3.3171957996699997e-26                  3.0468072509400001e-35                  1.36567757419e-18                       57.026262108200001                             57.026262132500001                               57.026262237899999                  3.99834084264e-19         0                           41                            6                           5                    -9.4446751754700009e-10  1.0799931609700001e-09  0.022938025500799999        9.7770886989300006e-13              6e-11                     
                       1.7655116584499999e-18                            265                                          7.7319165963400008e-06                  -3.1500447355900002e-26                 -5.8889781939799997e-35                  1.36567757419e-18                       57.026262106499999                             57.026262108200001                               57.026262237899999                  3.99834084264e-19         0                           48                            6                           6                    -1.0055575054100001e-09  9.7575018735400006e-10  0.022938025500799999        9.9638795834800003e-13              7.0000000000000004e-11       
                       1.7655116584499999e-18                            302                                          7.51093796668e-06                    -3.0032058131599999e-26                  3.8539837987600002e-35                  1.36567757419e-18                       57.026262117500004                             57.026262117500004                               57.026262237899999                  3.99834084264e-19         0                           55                            6                           7                    -1.0566910263200001e-09  8.69406666607e-10    0.022938025500799999        9.9020700832300001e-13              7.9999999999999995e-11       
                       1.7655116584499999e-18                            339                                          7.28926146845e-06                    -2.85640045532e-26                   -3.7857716961299999e-35                  1.36567757419e-18                       57.026262126500001                             57.026262126500001                               57.026262237899999                  3.99834084264e-19         0                           62                            6                           8                    -1.0979666141799999e-09  7.6181393960700003e-10  0.022938025500799999        9.9305419632699991e-13              8.9999999999999999e-11       
                       1.7655116584499999e-18                            376                                          7.0690758438599997e-06                  -2.7170102733100003e-26                 -6.2527760746900001e-35                  1.36567757419e-18                       57.026262132900001                             57.026262132900001                               57.026262237899999                  3.99834084264e-19         0                           69                            6                           9                    -1.12954652868e-09    6.5379281004399999e-10  0.022938025500799999        9.9242793167000001e-13              1e-10                     
                       1.7655116584499999e-18                            413                                          6.8514971283500001e-06                  -2.58287731069e-26                   -2.7625901566399998e-35                  1.36567757419e-18                       57.026262137400003                             57.026262137400003                               57.026262237899999                  3.99834084264e-19         0                           76                            6                           10                   -1.15165566094e-09    5.4612924286599996e-10  0.022938025500799999        9.9292348508300003e-13              1.0999999999999999e-10       
                       1.7655116584499999e-18                            450                                          6.6398454323299998e-06                  -2.4549465892299999e-26                  1.2335021892800001e-35                  1.36567757419e-18                       57.026262139400004                             57.026262139400004                               57.026262237899999                  3.99834084264e-19         0                           83                            6                           11                   -1.1645748512800001e-09  4.3957022862700002e-10  0.022938025500799999        9.9293299715499993e-13              1.2e-10                   
                       1.7655116584499999e-18                            487                                          6.53042933983e-06                    -2.33321154846e-26                    7.7079675975299997e-35                  1.36567757419e-18                       57.0262621396                                  57.026262139799996                               57.026262237899999                  3.99834084264e-19         0                           90                            6                           12                   -1.1686371406500001e-09  3.3482040598800002e-10  0.022938025500799999        9.9296183971099995e-13              1.2999999999999999e-10       
                       1.7655116584499999e-18                            524                                          6.4215855327999998e-06                  -2.2250813381300001e-26                 -1.19939613796e-35                    1.36567757419e-18                       57.0262621376                                  57.0262621396                                    57.026262237899999                  3.99834084264e-19         0                           97                            6                           13                   -1.1642234632699999e-09  2.32539116405e-10    0.022938025500799999        9.8888245014199993e-13              1.4000000000000001e-10       
                       1.7655116584499999e-18                            561                                          6.3126899770200002e-06                  -2.1317048914699999e-26                 -3.9221959013999997e-36                  1.36567757419e-18                       57.026262134                                   57.0262621376                                    57.026262237899999                  3.99834084264e-19         0                           104                           6                           14                   -1.1517570121200001e-09  1.3333756796799999e-10  0.022938025500799999        9.8318040064100003e-13              1.5e-10                   
                       1.7655116584499999e-18                            598                                          6.2014297163899996e-06                  -2.0371196680999999e-26                 -1.3528733688900001e-35                  1.36567757419e-18                       57.026262128299997                             57.026262134                                     57.026262237899999                  3.99834084264e-19         0                           111                           6                           15                   -1.1316982330800001e-09  3.7776926183100003e-11  0.022938025500799999        9.8735934686600004e-13              1.5999999999999999e-10       
                       1.7655116584499999e-18                            635                                          6.0877483429500004e-06                  -1.9482817968299999e-26                 -5.5592863645900004e-35                  1.36567757419e-18                       57.0262621213                                  57.026262128299997                               57.026262237899999                  3.99834084264e-19         0                           118                           6                           16                   -1.10454107635e-09   -5.3633392963099997e-11  0.022938025500799999        9.8641522948899995e-13              1.7000000000000001e-10       
                       1.7655116584499999e-18                            672                                          5.9708468279600003e-06                  -1.8626912393899999e-26                  6.2527760746900004e-36                  1.36567757419e-18                       57.026262112600001                             57.0262621213                                    57.026262237899999                  3.99834084264e-19         0                           125                           6                           17                   -1.0708058020099999e-09 -1.40437003574e-10    0.022938025500799999        9.8714857647900002e-13              1.8e-10                   
                       1.7655116584499999e-18                            709                                          5.8504287448700003e-06                  -1.7807699571999999e-26                 -4.6213699533800001e-35                  1.36567757419e-18                       57.026262102499999                             57.026262112600001                               57.026262237899999                  3.99834084264e-19         0                           132                           6                           18                   -1.03103583679e-09   -2.2223125852200001e-10  0.022938025500799999        9.8739269398300001e-13              1.8999999999999999e-10       
                       1.7655116584499999e-18                            746                                          5.7262642327000003e-06                  -1.7019364662900001e-26                 -2.4954260879900002e-35                  1.36567757419e-18                       57.026262091299998                             57.026262102499999                               57.026262237899999                  3.99834084264e-19         0                           139                           6                           19                   -9.8579225595999995e-10 -2.9866764962200001e-10  0.022938025500799999        9.879020773109999e-13              2.0000000000000001e-10       
                       1.7655116584499999e-18                            783                                          5.5983686321000001e-06                  -1.6259916261599999e-26                 -2.3646862246099999e-35                  1.36567757419e-18                       57.026262078800002                             57.026262091299998                               57.026262237899999                  3.99834084264e-19         0                           146                           6                           20                   -9.356492664659999e-10 -3.6945183091999998e-10  0.022938025500799999        9.8838091412700004e-13              2.1e-10                   
                       1.7655116584499999e-18                            820                                          5.4668840909100003e-06                  -1.5526162061200001e-26                 -1.04023456515e-35                    1.36567757419e-18                       57.026262065499999                             57.026262078800002                               57.026262237899999                  3.99834084264e-19         0                           153                           6                           21                   -8.81188898347e-10   -4.34343080269e-10    0.022938025500799999        9.8894234001399995e-13              2.1999999999999999e-10       
                       1.7655116584499999e-18                            857                                          5.3321748308299999e-06                  -1.4816133331099999e-26                  2.23963070312e-35                    1.36567757419e-18                       57.026262051300002                             57.026262065499999                               57.026262237899999                  3.99834084264e-19         0                           160                           6                           22                   -8.2299669738899999e-10 -4.9315366486600004e-10  0.022938025500799999        9.895210266449999e-13              2.3000000000000001e-10       
                       1.7655116584499999e-18                            894                                          5.1947365951100002e-06                  -1.41292744255e-26                   -3.03543856717e-35                    1.36567757419e-18                       57.0262620365                                  57.026262051300002                               57.026262237899999                  3.99834084264e-19         0                           167                           6                           23                   -7.6165832579099996e-10 -5.4574762034500002e-10  0.022938025500799999        9.9007881635600005e-13              2.4e-10                   
                       1.7655116584499999e-18                            931                                          5.05515446598e-06                    -1.34629283871e-26                    5.4058091336599995e-35                  1.36567757419e-18                       57.026262021000001                             57.0262620365                                    57.026262237899999                  3.99834084264e-19         0                           174                           6                           24                   -6.9775406736899999e-10 -5.9203935379600003e-10  0.022938025500799999        9.9076640563400003e-13              2.5000000000000002e-10       
                       1.7655116584499999e-18                            968                                          4.9141759741800002e-06                  -1.28183992796e-26                   -4.7180037654500003e-35                  1.36567757419e-18                       57.026262015500002                             57.026262021000001                               57.026262237899999                  3.99834084264e-19         0                           181                           6                           25                   -6.3185596372900002e-10 -6.3199194992199998e-10  0.022938025500799999        9.9126134428499999e-13              2.5999999999999998e-10       
                       1.7655116584499999e-18                            1005                                         4.7725986102200004e-06                  -1.2197300522999999e-26                 -5.4626525525199996e-35                  1.36567757419e-18                       57.026262023000001                             57.026262023000001                               57.026262237899999                  3.99834084264e-19         0                           188                           6                           26                   -5.6452327407899998e-10 -6.6561511921500001e-10  0.022938025500799999        9.916379918329999e-13              2.7e-10                   
                       1.7655116584499999e-18                            1042                                         4.6312585441100003e-06                  -1.16003147822e-26                   -8.0717654782299997e-36                  1.36567757419e-18                       57.026262028799998                             57.026262028799998                               57.026262237899999                  3.99834084264e-19         0                           195                           6                           27                   -4.9629984423499997e-10 -6.9296306610300002e-10  0.022938025500799999        9.9199832818900003e-13              2.8000000000000002e-10       
                       1.7655116584499999e-18                            1079                                         4.4910215277299998e-06                  -1.10287181325e-26                   -3.3139713195900002e-35                  1.36567757419e-18                       57.0262620333                                  57.0262620333                                    57.026262237899999                  3.99834084264e-19         0                           202                           6                           28                   -4.2771107982800001e-10 -7.1413198165800002e-10  0.022938025500799999        9.9226201133300003e-13              2.8999999999999998e-10       
                       1.7655116584499999e-18                            1116                                         4.3555842535699996e-06                  -1.0483121935399999e-26                 -2.8933300200200002e-35                  1.36567757419e-18                       57.026262036200002                             57.026262036200002                               57.026262237899999                  3.99834084264e-19         0                           209                           6                           29                   -3.59259964898e-10   -7.2925739077600003e-10  0.022938025500799999        9.9249466406500008e-13              3e-10                     
                       1.7655116584499999e-18                            1153                                         4.2334699016100003e-06                  -9.9643790585200005e-27                  6.0765614762200002e-35                  1.36567757419e-18                       57.026262037899997                             57.026262037899997                               57.026262237899999                  3.99834084264e-19         0                           216                           6                           30                   -2.91425967589e-10   -7.3851145862100002e-10  0.022938025500799999        9.9264288057099998e-13              3.1000000000000002e-10       
                       1.7655116584499999e-18                            1190                                         4.1615410413499999e-06                  -9.4727679402100006e-27                  2.6773250283400002e-35                  1.36567757419e-18                       57.0262620381                                  57.026262038299997                               57.026262237899999                  3.99834084264e-19         0                           223                           6                           31                   -2.24661338143e-10   -7.4210001766900001e-10  0.022938025500799999        9.9282270737099992e-13              3.1999999999999998e-10       
                       1.7655116584499999e-18                            1227                                         4.0908868048400001e-06                  -9.0670774663500006e-27                  2.7512214728599999e-35                  1.36567757419e-18                       57.026262037199999                             57.0262620381                                    57.026262237899999                  3.99834084264e-19         0                           230                           6                           32                   -1.59389944747e-10   -7.40259559825e-10    0.022938025500799999        9.8368355233300005e-13              3.3e-10                   
                       1.7655116584499999e-18                            1264                                         4.0197046500800001e-06                  -8.6765883925800002e-27                 -7.3896444519099999e-37                  1.36567757419e-18                       57.026262035000002                             57.026262037199999                               57.026262237899999                  3.99834084264e-19         0                           237                           6                           33                   -9.6006295643699997e-11 -7.3325415287399996e-10  0.022938025500799999        9.8521188978900008e-13              3.4000000000000001e-10       
                       1.7655116584499999e-18                            1301                                         3.9473293616800001e-06                  -8.2971421986699995e-27                  1.63140612131e-35                    1.36567757419e-18                       57.0262620317                                  57.026262035000002                               57.026262237899999                  3.99834084264e-19         0                           244                           6                           34                   -3.4872209653299997e-11 -7.2137227398300001e-10  0.022938025500799999        9.8644870514399991e-13              3.4999999999999998e-10       
                       1.7655116584499999e-18                            1338                                         3.8734710203000002e-06                  -7.9365511380199995e-27                 -1.4779288903800001e-36                  1.36567757419e-18                       57.026262027400001                             57.0262620317                                    57.026262237899999                  3.99834084264e-19         0                           251                           6                           35                    2.3682857863599999e-11 -7.0492361119199997e-10  0.022938025500799999        9.8620945895999998e-13              3.6e-10                   
                       1.7655116584499999e-18                            1375                                         3.7976742714599999e-06                  -7.5893827002199994e-27                  2.7455371309799998e-35                  1.36567757419e-18                       57.026262021999997                             57.026262027400001                               57.026262237899999                  3.99834084264e-19         0                           258                           6                           36                    7.9362560063599994e-11 -6.84236035158e-10    0.022938025500799999        9.8673515584199995e-13              3.7000000000000001e-10       
                       1.7655116584499999e-18                            1412                                         3.7197618564300002e-06                  -7.2553811912199996e-27                 -2.2794210963199999e-35                  1.36567757419e-18                       57.0262620158                                  57.026262021999997                               57.026262237899999                  3.99834084264e-19         0                           265                           6                           37                    1.31905032322e-10   -6.5965223620899997e-10  0.022938025500799999        9.8710728260000002e-13              3.7999999999999998e-10       
                       1.7655116584499999e-18                            1449                                         3.6396194974100001e-06                  -6.9329456134300003e-27                 -3.80850906367e-36                    1.36567757419e-18                       57.026262008800003                             57.0262620158                                    57.026262237899999                  3.99834084264e-19         0                           272                           6                           38                    1.81082799099e-10   -6.3152666552900002e-10  0.022938025500799999        9.8758647089499991e-13              3.9e-10                   
                       1.7655116584499999e-18                            1486                                         3.5572638591499999e-06                  -6.6209112681599999e-27                  2.7227997634299998e-35                  1.36567757419e-18                       57.026262001100001                             57.026262008800003                               57.026262237899999                  3.99834084264e-19         0                           279                           6                           39                    2.2670247126400001e-10 -6.0022258840000003e-10  0.022938025500799999        9.8813679256899998e-13              4.0000000000000001e-10       
                       1.7655116584499999e-18                            1523                                         3.4728429936399999e-06                  -6.3188771914600004e-27                 -1.4495071809500001e-35                  1.36567757419e-18                       57.026261992599999                             57.026262001100001                               57.026262237899999                  3.99834084264e-19         0                           286                           6                           40                    2.6860514189999998e-10 -5.6610895699099997e-10  0.022938025500799999        9.8869771519200004e-13              4.0999999999999998e-10       