# ODT 1.0
# Table Start
# Title: mmArchive Data Table, Wed Nov 09 15:46:20 UTC 2022
# Columns: {Oxs_RungeKuttaEvolve:evolver:Total energy} {Oxs_RungeKuttaEvolve:evolver:Energy calc count} {Oxs_RungeKuttaEvolve:evolver:Max dm/dt} Oxs_RungeKuttaEvolve:evolver:dE/dt {Oxs_RungeKuttaEvolve:evolver:Delta E} Oxs_UniformExchange:exchange:Energy {Oxs_UniformExchange:exchange:Max Spin Ang} {Oxs_UniformExchange:exchange:Stage Max Spin Ang} {Oxs_UniformExchange:exchange:Run Max Spin Ang} Oxs_Demag:demag:Energy Oxs_FixedZeeman:zeeman:Energy Oxs_TimeDriver::Iteration {Oxs_TimeDriver::Stage iteration} Oxs_TimeDriver::Stage Oxs_TimeDriver::mx   Oxs_TimeDriver::my   Oxs_TimeDriver::mz   {Oxs_TimeDriver::Last time step} {Oxs_TimeDriver::Simulation time}
# Units:                        J                                             {}                                         deg/ns                                 J/s                                   J                                     J                                      deg                                            deg                                              deg                                 J                          J                          {}                            {}                          {}                   {}                   {}                   {}                          s                                 s                
                       1.67436355178e-18                              49                                           0.00071258204336600004                  -1.2198826855100001e-21                 -1.56700963316e-33                    1.32307444671e-18                       58.126401455                                   58.126412483300001                               58.126412483300001                  5.3204295133400002e-19      -1.8075384626199999e-19         7                             7                           0                     0.35959835144399999  9.1078937693999995e-10  0.0231777802114            1.2240171254899999e-12              9.9999999999999994e-12       
                       1.67436355178e-18                              86                                           0.00053647944341599996                  -9.6110115542700009e-22                 -8.4190787674699999e-34                  1.32307442039e-18                       58.126399868199996                             58.126401455                                     58.126412483300001                  5.3204298874499997e-19      -1.8075385735200001e-19         14                            6                           1                     0.35959837350700002  5.7224033953399999e-10  0.023177783406600001        8.6929396927200003e-13              1.9999999999999999e-11       
                       1.67436355178e-18                              123                                          0.000520661406214                    -7.1889655280199998e-22                 -4.5872639020699997e-34                  1.3230744078299999e-18                     58.1263999946                                  58.126400017100003                               58.126412483300001                  5.3204301319500003e-19      -1.8075386924400001e-19         21                            6                           2                     0.35959839716600001 -8.6444256157800004e-10  0.023177786184600001        6.7749785542499999e-13              3e-11                     
                       1.67436355178e-18                              160                                          0.00058522857141299995                  -5.0509716520400002e-22                 -4.0063241613099999e-34                  1.32307439874e-18                       58.126400752199999                             58.126400752199999                               58.126412483300001                  5.32043031696e-19        -1.8075387866100001e-19         28                            6                           3                     0.35959841590000002 -3.9125968265599999e-09  0.023177787832900001        8.5689414883000005e-13              3.9999999999999998e-11       
                       1.67436355178e-18                              197                                          0.00061808259384000001                  -3.5019983563e-22                    -2.3787549707800002e-34                  1.32307439624e-18                       58.126402987200002                             58.126402987200002                               58.126412483300001                  5.3204303999699995e-19      -1.8075388445699999e-19         35                            6                           4                     0.35959842743100001 -9.1979869364900005e-09  0.023177788078999999        8.4441906513700001e-13              5.0000000000000002e-11       
                       1.67436355178e-18                              234                                          0.00057609606592900001                  -2.3164981968999998e-22                 -2.40653719175e-34                    1.3230743989099999e-18                     58.126404716899998                             58.126404716899998                               58.126412483300001                  5.3204304007399998e-19      -1.80753887211e-19           42                            6                           5                     0.35959843290799998 -1.6344261198499998e-08  0.023177787414499999        9.772822199920001e-13              6e-11                     
                       1.67436355178e-18                              271                                          0.00049347460844899999                  -1.5937337666800001e-22                 -1.25112364913e-34                    1.3230744031e-18                        58.126405822499997                             58.126405822499997                               58.126412483300001                  5.3204303678499995e-19      -1.8075388810700001e-19         49                            6                           6                     0.359598434691      -2.41497366907e-08    0.0231777865919            1.0116218703700001e-12              7.0000000000000004e-11       
                       1.67436355178e-18                              308                                          0.00044279115169700001                  -1.28135460283e-22                   -1.9212365032199999e-34                  1.3230744055400001e-18                     58.126406630200002                             58.126406630200002                               58.126412483300001                  5.3204303445100003e-19      -1.80753888209e-19           56                            6                           7                     0.35959843489499999 -3.1368096346e-08     0.023177786023599999        1.0201934528600001e-12              7.9999999999999995e-11       
                       1.67436355178e-18                              345                                          0.00041386526896199999                  -1.20458886712e-22                   -1.2583711850299999e-34                  1.3230744046499999e-18                     58.1264072496                                  58.1264072496                                    58.126412483300001                  5.3204303532099997e-19      -1.8075388819200001e-19         63                            6                           8                     0.35959843485999998 -3.73693705886e-08    0.023177785742199999        9.9831267306499992e-13              8.9999999999999999e-11       
                       1.67436355178e-18                              382                                          0.000395993367537                    -1.03511566485e-22                   -9.3201890649700005e-35                  1.32307440161e-18                       58.1264078727                                  58.1264078727                                    58.126412483300001                  5.3204303857600002e-19      -1.80753888406e-19           70                            6                           9                     0.35959843528699997 -4.2173774204299998e-08  0.0231777856217            9.7676297325899996e-13              1e-10                     
                       1.67436355178e-18                              419                                          0.00036571618259999999                  -7.7446003731799997e-23                 -8.3261397776400003e-35                  1.32307439934e-18                       58.126408684899999                             58.126408684899999                               58.126412483300001                  5.3204304150399998e-19      -1.8075388906200001e-19         77                            6                           10                    0.35959843659000001 -4.6046000122400001e-08  0.023177785567800001        1.00314296672e-12                1.0999999999999999e-10       
                       1.67436355178e-18                              456                                          0.000344502121023                    -6.2020357115799999e-23                 -1.5179324464000001e-34                  1.3230743992499999e-18                     58.126409766499997                             58.126409766499997                               58.126412483300001                  5.3204304282599999e-19      -1.807538903e-19             84                            6                           11                    0.35959843905299999 -4.91579080583e-08    0.0231777855233            1.02288087845e-12                1.2e-10                   
                       1.67436355178e-18                              493                                          0.00033529491670100003                  -6.0097967056799995e-23                 -7.7498896189399995e-35                  1.32307439971e-18                       58.126410942500002                             58.126410942500002                               58.126412483300001                  5.3204304427299998e-19      -1.8075389220400001e-19         91                            6                           12                    0.35959844284199999 -5.14884502045e-08    0.023177785458500001        9.9065633270900003e-13              1.2999999999999999e-10       
                       1.67436355178e-18                              530                                          0.00032589523671199997                  -6.2881163743500002e-23                 -9.10276298782e-35                    1.3230743985699999e-18                     58.126411987300003                             58.126411987300003                               58.126412483300001                  5.3204304798800001e-19      -1.8075389478299999e-19         98                            6                           13                    0.35959844797399998 -5.2945449820300001e-08  0.023177785397300001        9.9587926522800003e-13              1.4000000000000001e-10       
                       1.67436355178e-18                              567                                          0.00032305646710599999                  -6.6242646748799997e-23                 -6.1362470660200004e-35                  1.32307439557e-18                       58.126412908799999                             58.126412908799999                               58.126412908799999                  5.3204305414200004e-19      -1.8075389793400001e-19         105                           6                           14                    0.35959845424100001 -5.3555510421599998e-08  0.0231777853826            9.9137768865100005e-13              1.5e-10                   
                       1.67436355178e-18                              604                                          0.00032339014014499999                  -6.7915795423499999e-23                 -8.3204554357499995e-36                  1.3230743918999999e-18                     58.126413814800003                             58.126413814800003                               58.126413814800003                  5.3204306129700003e-19      -1.8075390142100001e-19         112                           6                           15                    0.35959846117799998 -5.35358070745e-08    0.023177785423900001        9.8738136239300003e-13              1.5999999999999999e-10       
                       1.67436355178e-18                              641                                          0.00032984130386899999                  -6.5981439870200004e-23                 -4.42952341473e-35                    1.3230743888e-18                        58.126414797400002                             58.126414797400002                               58.126414797400002                  5.3204306791899997e-19      -1.8075390494099999e-19         119                           6                           16                    0.359598468181      -5.32241623965e-08    0.0231777854965            9.7653296324099992e-13              1.7000000000000001e-10       
                       1.67436355178e-18                              678                                          0.00033515813309099998                  -6.03688124035e-23                   -7.8621553711899998e-35                  1.32307438662e-18                       58.126415860000002                             58.126415860000002                               58.126415860000002                  5.3204307338400001e-19      -1.8075390822600001e-19         126                           6                           17                    0.35959847471599998 -5.2942350274000002e-08  0.023177785572600001        9.8069751259700008e-13              1.8e-10                   
                       1.67436355178e-18                              715                                          0.00033793862725199999                  -5.3164983794899996e-23                 -4.9837467486199999e-35                  1.32307438502e-18                       58.1264169532                                  58.1264169532                                    58.1264169532                       5.3204307787999997e-19      -1.80753911126e-19           133                           6                           18                    0.35959848048600002 -5.28694165172e-08    0.023177785639500001        9.90943050376e-13                1.8999999999999999e-10       
                       1.67436355178e-18                              752                                          0.00032875686955400002                  -4.6411328878900002e-23                  3.1782576570500002e-35                  1.3230743836099999e-18                     58.126418015399999                             58.126418015399999                               58.126418015399999                  5.3204308180000003e-19      -1.8075391362800001e-19         140                           6                           19                    0.35959848546399997 -5.2985069733400003e-08  0.023177785694800002        1.00641639694e-12                2.0000000000000001e-10       
                       1.67436355178e-18                              789                                          0.00031776661775500002                  -4.1235490434099999e-23                 -6.7835514983000002e-35                  1.32307438218e-18                       58.126419020699998                             58.126419020699998                               58.126419020699998                  5.3204308542399997e-19      -1.8075391582300001e-19         147                           6                           20                    0.35959848983100001 -5.3110948055099998e-08  0.023177785737700001        1.0202631087300001e-12              2.1e-10                   
                       1.67436355178e-18                              826                                          0.00030540076180099999                  -3.8057417396199997e-23                 -2.20694573727e-35                    1.3230743806900001e-18                     58.126419954399999                             58.126419954399999                               58.126419954399999                  5.3204308892500001e-19      -1.8075391784199999e-19         154                           6                           21                    0.35959849384600001 -5.3018640483799998e-08  0.023177785767100001        1.02515948023e-12                2.1999999999999999e-10       
                       1.67436355178e-18                              863                                          0.00029672520464599998                  -3.6604477261500001e-23                 -1.0752643220299999e-34                  1.3230743791699999e-18                     58.126420823700002                             58.126420823700002                               58.126420823700002                  5.320430924e-19          -1.80753919796e-19           161                           6                           22                    0.35959849773399999 -5.25334247941e-08    0.023177785784399999        1.02252077221e-12                2.3000000000000001e-10       
                       1.67436355178e-18                              900                                          0.000288570877711                    -3.6047444097000002e-23                 -6.9988459472399997e-36                  1.32307437767e-18                       58.126421645699999                             58.126421645699999                               58.126421645699999                  5.3204309586100001e-19      -1.80753921749e-19           168                           6                           23                    0.35959850162000001 -5.1581907626000002e-08  0.023177785792399999        1.01968601115e-12                2.4e-10                   
                       1.67436355178e-18                              937                                          0.00028275356451199998                  -3.5558550633200003e-23                  6.4439120706100003e-35                  1.3230743762100001e-18                     58.126422435400002                             58.126422435400002                               58.126422435400002                  5.3204309927800004e-19      -1.8075392371e-19            175                           6                           24                    0.35959850552200001 -5.0181216055399999e-08  0.0231777857941            1.01836954057e-12                2.5000000000000002e-10       
                       1.67436355178e-18                              974                                          0.00027538765150799999                  -3.4644699713399999e-23                  5.9173999034100003e-35                  1.32307437481e-18                       58.126423193400001                             58.126423193400001                               58.126423193400001                  5.3204310262300004e-19      -1.80753925654e-19           182                           6                           25                    0.35959850938900001 -4.83996549854e-08    0.023177785792             1.0230212684699999e-12              2.5999999999999998e-10       
                       1.67436355178e-18                              1011                                         0.000269340115055                    -3.3285983775899998e-23                 -6.5007554894700005e-35                  1.3230743734399999e-18                     58.126423907800003                             58.126423907800003                               58.126423907800003                  5.32043105876e-19        -1.8075392753900001e-19         189                           6                           26                    0.35959851314000002 -4.6319526330599998e-08  0.023177785787099999        1.02413626679e-12                2.7e-10                   
                       1.67436355178e-18                              1048                                         0.00026226157543999997                  -3.1621487321499998e-23                 -5.9337423863299996e-35                  1.3230743721100001e-18                     58.126424571199998                             58.126424571199998                               58.126424571199998                  5.3204310899599996e-19      -1.8075392932900001e-19         196                           6                           27                    0.35959851669999998 -4.4016282062499999e-08  0.023177785779800002        1.02568410366e-12                2.8000000000000002e-10       
                       1.67436355178e-18                              1085                                         0.00025626067105399998                  -2.9843044048699999e-23                  2.5444535367600001e-35                  1.3230743708599999e-18                     58.126425180399998                             58.126425180399998                               58.126425180399998                  5.3204311191499996e-19      -1.80753930995e-19           203                           6                           28                    0.35959852001499998 -4.15524576922e-08    0.0231777857704            1.02485039939e-12                2.8999999999999998e-10       
                       1.67436355178e-18                              1122                                         0.000249640030718                    -2.8053713906499997e-23                 -6.9256600454500001e-35                  1.32307436973e-18                       58.126425741399999                             58.126425741399999                               58.126425741399999                  5.3204311456599996e-19      -1.80753932521e-19           210                           6                           29                    0.35959852305000001 -3.8978448153599999e-08  0.023177785760999998        1.0266460146200001e-12              3e-10                     
                       1.67436355178e-18                              1159                                         0.00024298618712399999                  -2.6323218795800001e-23                 -1.0273026873599999e-34                  1.32307436876e-18                       58.126426254899997                             58.126426254899997                               58.126426254899997                  5.3204311691199998e-19      -1.8075393389799999e-19         217                           6                           30                    0.35959852578899998 -3.6333659746700002e-08  0.023177785755299999        1.02719867159e-12                3.1000000000000002e-10       
                       1.67436355178e-18                              1196                                         0.00023601369276400001                  -2.46664615088e-23                   -7.0777161909099999e-35                  1.3230743679400001e-18                     58.126426721000001                             58.126426721000001                               58.126426721000001                  5.32043118963e-19        -1.80753935124e-19           224                           6                           31                    0.35959852822799998 -3.3645959064599999e-08  0.023177785757899999        1.0304460106200001e-12              3.1999999999999998e-10       
                       1.67436355178e-18                              1233                                         0.00022845165676399999                  -2.3102900829399999e-23                  2.4023449896e-35                     1.32307436723e-18                       58.126427133100002                             58.126427133100002                               58.126427133100002                  5.3204312075199999e-19      -1.80753936199e-19           231                           6                           32                    0.35959853036799999 -3.0930881790099998e-08  0.023177785771699998        1.03520740052e-12                3.3e-10                   
                       1.67436355178e-18                              1270                                         0.000221394609343                    -2.16862075982e-23                   -6.5931260451199997e-35                  1.32307436659e-18                       58.126427487800001                             58.126427487800001                               58.126427487800001                  5.3204312231800001e-19      -1.8075393712700001e-19         238                           6                           33                    0.35959853221299998 -2.8193043936299999e-08  0.023177785796100001        1.03629965458e-12                3.4000000000000001e-10       
                       1.67436355178e-18                              1307                                         0.00021380615115700001                  -2.0425246638199999e-23                 -4.6249226670599998e-35                  1.3230743660100001e-18                     58.126427781799997                             58.126427781799997                               58.126427781799997                  5.3204312367900001e-19      -1.8075393790999999e-19         245                           6                           34                    0.35959853377099998 -2.5430654885700001e-08  0.023177785826899999        1.03787600076e-12                3.4999999999999998e-10       
                       1.67436355178e-18                              1344                                         0.00020739213502300001                  -1.9322983513399999e-23                  4.6043169277299999e-35                  1.3230743654999999e-18                     58.1264280177                                  58.1264280177                                    58.1264280177                       5.3204312483600001e-19      -1.8075393855400001e-19         252                           6                           35                    0.35959853505200001 -2.2641615176700001e-08  0.023177785857700001        1.0378279652e-12                 3.6e-10                   
                       1.67436355178e-18                              1381                                         0.00020057234792000001                  -1.8350774216300001e-23                  1.9383605831500001e-35                  1.3230743650700001e-18                     58.126428198200003                             58.126428198200003                               58.126428198200003                  5.3204312577299998e-19      -1.80753939064e-19           259                           6                           36                    0.35959853606600001 -1.98285567676e-08    0.0231777858823            1.03825957834e-12                3.7000000000000001e-10       
                       1.67436355178e-18                              1418                                         0.000194948884802                    -1.7482693021899999e-23                  2.5700330752400002e-35                  1.3230743647500001e-18                     58.126428328000003                             58.126428328000003                               58.126428328000003                  5.3204312647800003e-19      -1.80753939446e-19           266                           6                           37                    0.35959853682600001 -1.70010476708e-08    0.023177785896800002        1.0368255125199999e-12              3.7999999999999998e-10       
                       1.67436355178e-18                              1455                                         0.00018891975967199999                  -1.6677612769799999e-23                 -3.9584335809200001e-35                  1.3230743645399999e-18                     58.126428410000003                             58.126428410000003                               58.126428410000003                  5.3204312694800002e-19      -1.80753939705e-19           273                           6                           38                    0.35959853734300001 -1.41749692921e-08    0.0231777859009            1.03720836791e-12                3.9e-10                   
                       1.67436355178e-18                              1492                                         0.000183746100737                    -1.59216074617e-23                    1.5489831639600001e-35                  1.3230743644300001e-18                     58.126428445999998                             58.126428445999998                               58.126428445999998                  5.3204312719200003e-19      -1.8075393984699999e-19         280                           6                           39                    0.35959853762600003 -1.13702727816e-08    0.023177785896900002        1.0359898318399999e-12              4.0000000000000001e-10       
                       1.67436355178e-18                              1529                                         0.000179182116279                    -1.5192251639199999e-23                 -3.6365577216200001e-35                  1.3230743644200001e-18                     58.126428436700003                             58.126428447899997                               58.126428447899997                  5.3204312722900004e-19      -1.80753939875e-19           287                           6                           40                    0.35959853768099997 -8.6084068607299998e-09  0.023177785889100001        1.0385329861699999e-12              4.0999999999999998e-10       