# ODT 1.0
# Table Start
# Title: mmArchive Data Table, Sat Nov 12 15:29:44 UTC 2022
# Columns: {Oxs_RungeKuttaEvolve:evolver:Total energy} {Oxs_RungeKuttaEvolve:evolver:Energy calc count} {Oxs_RungeKuttaEvolve:evolver:Max dm/dt} Oxs_RungeKuttaEvolve:evolver:dE/dt {Oxs_RungeKuttaEvolve:evolver:Delta E} Oxs_FixedZeeman:zeeman1:Energy Oxs_FixedZeeman:zeeman2:Energy Oxs_TransformZeeman:zeeman3:Energy Oxs_TimeDriver::Iteration {Oxs_TimeDriver::Stage iteration} Oxs_TimeDriver::Stage Oxs_TimeDriver::mx   Oxs_TimeDriver::my   Oxs_TimeDriver::mz   {Oxs_TimeDriver::Last time step} {Oxs_TimeDriver::Simulation time}
# Units:                        J                                             {}                                         deg/ns                                 J/s                                   J                                  J                              J                                J                             {}                            {}                          {}                   {}                   {}                   {}                          s                                 s                
                       5.0910953630499998e-25                            7                                            0.031704616217599998                   3.1570369786700001e-15                  3.1613019371200001e-26                5.0372201021100002e-25           -2.6241440624899999e-26              3.1628966719500001e-26           1                             1                           0                    -0.0072571969540000001 -0.011961324783000001 -0.030887633181200001        9.9999999999999994e-12              9.9999999999999994e-12       
                       5.4059566666200002e-25                            14                                           0.03298242723                         3.13811465818e-15                    3.1486130356600001e-26                5.0371008739100003e-25           -2.62460347607e-26                6.3131614031700003e-26           3                             1                           1                    -0.0072569190891200001 -0.011960778436599999 -0.030887271407799999        9.9999999999999994e-12              1.9999999999999999e-11       
                       5.7183049122200003e-25                            21                                           0.034255204012400002                   3.1067925008300001e-15                  3.1234824560299999e-26                5.0369761781700002e-25           -2.6250648374599999e-26              9.4383521780199997e-26           5                             1                           2                    -0.0072566249180899996 -0.0119602115613     -0.030886892082599999        9.9999999999999994e-12              3e-11                     
                       6.0269059368799999e-25                            28                                           0.0355172842686                       3.0631950667599998e-15                  3.0860102465700002e-26                5.0368460690400003e-25           -2.6255281273100001e-26              1.2526126805799999e-25           7                             1                           3                    -0.0072563146024699999 -0.0119596243605     -0.030886495379500001        9.9999999999999994e-12              3.9999999999999998e-11       
                       6.3305404681299999e-25                            35                                           0.036763084042699998                   3.0074955066800001e-15                  3.0363453125100001e-26                5.0367106220399999e-25           -2.6259933186700001e-26              1.5564291779600001e-25           9                             1                           4                    -0.00725598836753    -0.0119590171178     -0.030886081541000001        9.9999999999999994e-12              5.0000000000000002e-11       
                       6.62800894999e-25                              42                                           0.037987030488799998                   2.9399148676099999e-15                  2.9746848185900001e-26                5.0365699337700004e-25           -2.6264603770699997e-26              1.85408505393e-25             11                            1                           5                    -0.0072556465013499999 -0.011958390196      -0.030885650876900001        9.9999999999999994e-12              6e-11                     
                       6.9181362898899996e-25                            49                                           0.0391837563857                       2.8607212074799999e-15                  2.9012733989499998e-26                5.0364241214899999e-25           -2.6269292606799999e-26              2.1444050944700002e-25           13                            1                           6                    -0.00725528935373    -0.0119577440353     -0.030885203763599999        9.9999999999999994e-12              7.0000000000000004e-11       
                       7.1997765076400003e-25                            56                                           0.040348431777600002                   2.7702285220300001e-15                  2.8164021775399998e-26                5.0362733227e-25              -2.6273999204699997e-26              2.4262431769900002e-25           15                            1                           7                    -0.0072549173347400001 -0.0119570791519     -0.030884740642599998        9.9999999999999994e-12              7.9999999999999995e-11       
                       7.4718172679500002e-25                            63                                           0.041475381219100001                   2.6687954886600002e-15                  2.7204076031200001e-26                5.0361176945699998e-25           -2.6278723003900002e-26              2.6984868034200002e-25           17                            1                           8                    -0.00725453091317    -0.0119563961362     -0.030884262018399999        9.9999999999999994e-12              8.9999999999999999e-11       
                       7.7331842783200003e-25                            70                                           0.042560393067399997                   2.5568240323600001e-15                  2.6136701036500001e-26                5.0359574133400004e-25           -2.6283463376e-26                 2.9600614987399999e-25           19                            1                           9                    -0.0072541306146399996 -0.011955695649800001 -0.0308837684565            9.9999999999999994e-12              1e-10                     
                       7.9828455348900004e-25                            77                                           0.043598345847699997                   2.43475771961e-15                    2.4966125657099999e-26                5.0357926736100004e-25           -2.6288219627399999e-26              3.2099350575599999e-25           21                            1                           10                   -0.00725371701952    -0.011954978423300001 -0.0308832605816            9.9999999999999994e-12              1.0999999999999999e-10       
                       8.2198153994000003e-25                            84                                           0.044585058440300002                   2.3030799868999998e-15                  2.3696986451e-26                   5.0356236875500004e-25           -2.6292991001600001e-26              3.44712162186e-25             23                            1                           11                   -0.0072532907606799998 -0.011954245253499999 -0.030882739074899999        9.9999999999999994e-12              1.2e-10                   
                       8.4431584909699999e-25                            91                                           0.045516224387200002                   2.16231221125e-15                    2.2334309157499999e-26                5.0354506841400001e-25           -2.6297776682399998e-26              3.6706855736600001e-25           25                            1                           12                   -0.0072528525209499999 -0.0119534970001     -0.030882204671200002        9.9999999999999994e-12              1.2999999999999999e-10       
                       8.6519933774199994e-25                            98                                           0.046388101370899999                   2.0130116305400002e-15                  2.08834886445e-26                  5.0352739081600004e-25           -2.6302575797500002e-26              3.8797452272399998e-25           27                            1                           13                   -0.0072524030304399996 -0.0119527345822     -0.0308816581564            9.9999999999999994e-12              1.4000000000000001e-10       
                       8.8454960513900001e-25                            105                                          0.047196814539900003                   1.85576912228e-15                    1.9350267396700001e-26                5.0350936193100003e-25           -2.6307387421199997e-26              4.0734763062900002e-25           29                            1                           14                   -0.0072519430636600003 -0.011951958975      -0.030881100364099998        9.9999999999999994e-12              1.5e-10                   
                       9.0229031777099993e-25                            112                                          0.047938630872400002                   1.69120684983e-15                    1.7740712632399999e-26                5.0349100911499999e-25           -2.6312210578699998e-26              4.2511151923499995e-25           31                            1                           15                   -0.00725147343649    -0.011951171205500001 -0.030880532172399999        9.9999999999999994e-12              1.5999999999999999e-10       
                       9.1835150991499996e-25                            119                                          0.048611727741999997                   1.5199757858300001e-15                  1.6061192144299999e-26                5.0347236100199999e-25           -2.6317044249499997e-26              4.4119619316300003e-25           33                            1                           16                   -0.0072509950028799997 -0.0119503723489     -0.0308799545005            9.9999999999999994e-12              1.7000000000000001e-10       
                       9.3266985887499994e-25                            126                                          0.049212090257100001                   1.3427531227400001e-15                  1.43183489598e-26                  5.0345344739100001e-25           -2.6321887371699999e-26              4.5553829885599996e-25           35                            1                           17                   -0.0072505086515800002 -0.011949563524099999 -0.030879368304899998        9.9999999999999994e-12              1.8e-10                   
                       9.4518893380199991e-25                            133                                          0.049737485525599999                   1.16023958117e-15                    1.25190749273e-26                  5.0343429912900002e-25           -2.6326738846199997e-26              4.6808137352000003e-25           37                            1                           18                   -0.0072500153025599999 -0.0119487458893     -0.030878774575899999        9.9999999999999994e-12              1.8999999999999999e-10       
                       9.5585941713499998e-25                            140                                          0.050185814798499997                   9.7315662688700009e-16                  1.06704833327e-26                  5.0341494799000003e-25           -2.6331597540799999e-26              4.7877606668600001e-25           39                            1                           19                   -0.0072495159034100002 -0.0119479206375     -0.0308781743334            9.9999999999999994e-12              2.0000000000000001e-10       
                       9.6463929779500003e-25                            147                                          0.050555193239700001                   7.82243607608e-16                    8.7798806598499997e-27                5.0339542654700004e-25           -2.6336462294999998e-26              4.87580333543e-25             41                            1                           20                   -0.0072490114255900004 -0.0119470889918     -0.0308775686232            9.9999999999999994e-12              2.1e-10                   
                       9.7149403540099996e-25                            154                                          0.050844029474199998                   5.8825482136000001e-16                  6.8547376060600006e-27                5.0337576804700001e-25           -2.6341331924300001e-26              4.94459599278e-25             43                            1                           21                   -0.0072485028606200002 -0.0119462522004     -0.030876958512300001        9.9999999999999994e-12              2.1999999999999999e-10       
                       9.76396694872e-25                              161                                          0.051051169242400003                   3.9195652797300001e-16                  4.9026594715199999e-27                5.0335600627599999e-25           -2.6346205224899999e-26              4.9938689382099997e-25           45                            1                           22                   -0.0072479912161000004 -0.011945411531999999 -0.030876345085599999        9.9999999999999994e-12              2.3000000000000001e-10       
                       9.7932805091300009e-25                            168                                          0.051175891658000003                   1.94123915781e-16                    2.9313560402700001e-27                5.0333617542900004e-25           -2.6351080978800003e-26              5.0234295646300003e-25           47                            1                           23                   -0.0072474775118399996 -0.0119445682704     -0.030875729440599999        9.9999999999999994e-12              2.4e-10                   
                       9.8027666198599997e-25                            175                                          0.051217521272299997                  -4.46196437903e-18                    9.4861107357599992e-28                5.0331630997200001e-25           -2.6355957957899998e-26              5.0331630997200001e-25           49                            1                           24                   -0.0072469627757300002 -0.0119437237097     -0.030875112683799999        9.9999999999999994e-12              2.5000000000000002e-10       
                       9.7923891352399993e-25                            182                                          0.051175891987800003                  -2.0301728567300001e-16                 -1.0377484628e-27                   5.0329644450999999e-25           -2.6360834929799998e-26              5.0230330394399997e-25           51                            1                           25                   -0.0072464480397500001 -0.011942879149299999 -0.030874495926100001        9.9999999999999994e-12              2.5999999999999998e-10       
                       9.7621903020800003e-25                            189                                          0.051051168413000003                  -4.0075854003300002e-16                 -3.0198833151600001e-27                5.0327661364500002e-25           -2.6365710661800002e-26              4.9930812722499997e-25           53                            1                           26                   -0.0072459343358600003 -0.0119420358884     -0.0308738802783            9.9999999999999994e-12              2.7e-10                   
                       9.7122905732899995e-25                            196                                          0.050844028620699998                  -5.9690562894800001e-16                 -4.9899728798399999e-27                5.03256851845e-25             -2.6370583926199998e-26              4.9434278940900003e-25           55                            1                           27                   -0.0072454226919600002 -0.011941195221099999 -0.030873266847000001        9.9999999999999994e-12              2.8000000000000002e-10       
                       9.6428881128800003e-25                            203                                          0.050555192823500003                  -7.9068493810600005e-16                 -6.9402460404499995e-27                5.0323719330500001e-25           -2.6375453505099998e-26              4.8742707148900001e-25           57                            1                           28                   -0.0072449141278200001 -0.011940358431199999 -0.0308726567298            9.9999999999999994e-12              2.8999999999999998e-10       
                       9.5542579950499994e-25                            210                                          0.050185815421999999                  -9.8133238380200001e-16                 -8.8630117831299995e-27                5.0321767181e-25              -2.6380318195099999e-26              4.7858844589000001e-25           59                            1                           29                   -0.0072444096510200003 -0.0119395267874     -0.0308720510114            9.9999999999999994e-12              3e-10                     
                       9.4467511003500007e-25                            217                                          0.049737486480699998                  -1.16809641921e-15                   -1.0750689469800001e-26                5.0319832060800004e-25           -2.63851768121e-26                4.6786196624000001e-25           61                            1                           30                   -0.0072439102530399996 -0.011938701538      -0.0308714507591            9.9999999999999994e-12              3.1000000000000002e-10       
                       9.3207927138399995e-25                            224                                          0.049212091154500003                  -1.35024098877e-15                   -1.2595838651300001e-26                5.0317917227100001e-25           -2.63900281962e-26                4.5529012730900004e-25           63                            1                           31                   -0.0072434169053099996 -0.011937883905900001 -0.030870857018700001        9.9999999999999994e-12              3.1999999999999998e-10       
                       9.1768808308000009e-25                            231                                          0.0486117253013                      -1.5270484192500001e-15                 -1.4391188303899999e-26                5.0316025857400004e-25           -2.6394871215699999e-26              4.40922695721e-25             65                            1                           32                   -0.0072429305553500002 -0.0119370750842     -0.030870270810199999        9.9999999999999994e-12              3.3e-10                   
                       9.0155841770400005e-25                            238                                          0.047938637440200001                  -1.6978222362200001e-15                 -1.6129665376000001e-26                5.0314161036399999e-25           -2.6399704772299998e-26              4.2481651211199998e-25           67                            1                           33                   -0.0072424521230899999 -0.0119362762309     -0.030869693123900002        9.9999999999999994e-12              3.4000000000000001e-10       
                       8.83753995169e-25                              245                                          0.047196816553699998                  -1.8618898951299999e-15                 -1.7804422535199999e-26                5.0312325744000004e-25           -2.6404527804800002e-26              4.0703526553399999e-25           69                            1                           34                   -0.0072419824972     -0.011935488465099999 -0.030869124916399999        9.9999999999999994e-12              3.4999999999999998e-10       
                       8.6434513016099991e-25                            252                                          0.046388102740100003                  -2.0186054163700001e-15                 -1.94088650076e-26                  5.0310522843599995e-25           -2.6409339293699999e-26              3.8764924101900001e-25           71                            1                           35                   -0.0072415225315899997 -0.0119347128618     -0.030868567107199998        9.9999999999999994e-12              3.6e-10                   
                       8.4340845375400004e-25                            259                                          0.045516227525000001                  -2.1673519144299999e-15                 -2.0936676406699999e-26                5.0308755070699996e-25           -2.6414138264900003e-26              3.6673504131200002e-25           73                            1                           36                   -0.0072410730420399997 -0.0119339504481     -0.030868020574299999        9.9999999999999994e-12              3.7000000000000001e-10       
                       8.2102661030100004e-25                            266                                          0.044585056558700001                  -2.3075440111299999e-15                 -2.2381843453800001e-26                5.0307025022500002e-25           -2.64189237939e-26                3.4437528387000002e-25           75                            1                           37                   -0.007240634803      -0.011933202198999999 -0.0308674861515            9.9999999999999994e-12              3.7999999999999998e-10       
                       7.9728793080700001e-25                            273                                          0.0435983488686                      -2.4386301241e-15                    -2.3738679493299999e-26                5.0305335146799996e-25           -2.6423695009100001e-26              3.2065827434900002e-25           77                            1                           38                   -0.0072402085444899997 -0.0119324690337     -0.0308669646249            9.9999999999999994e-12              3.9e-10                   
                       7.7228608409100002e-25                            280                                          0.0425603944212                      -2.5600946215000002e-15                 -2.5001846716599999e-26                5.0303687733200004e-25           -2.6428451095599999e-26              2.95677657855e-25             79                            1                           39                   -0.0072397949492600004 -0.011931751811899999 -0.030866456729399999        9.9999999999999994e-12              4.0000000000000001e-10       
                       7.4611970708399999e-25                            287                                          0.041475375887899998                  -2.6714598349899999e-15                 -2.61663770064e-26                  5.0302084903600003e-25           -2.6433191298000003e-26              2.69532049346e-25             81                            1                           40                   -0.0072393946501000004 -0.011931051330099999 -0.0308659631463            9.9999999999999994e-12              4.0999999999999998e-10       
                       7.1889201575900003e-25                            294                                          0.040348434035399998                  -2.77228792323e-15                   -2.7227691325499998e-26                5.0300528603999997e-25           -2.6437914923700002e-26              2.4232464464199998e-25           83                            1                           41                   -0.0072390082272900001 -0.011930368319      -0.030865484500400001        9.9999999999999994e-12              4.2e-10                   
                       6.9071039818300003e-25                            301                                          0.039183748647999998                  -2.8621825789699999e-15                 -2.8181617575399997e-26                5.0299020596799996e-25           -2.6442621345500002e-26              2.1416281356099999e-25           85                            1                           42                   -0.0072386362063799996 -0.011929703440299999 -0.030865021357400001        9.9999999999999994e-12              4.3000000000000001e-10       
                       6.6168599132600002e-25                            308                                          0.037987035018599999                  -2.9407905732000002e-15                 -2.9024406857399998e-26                5.0297562453600004e-25           -2.64473100041e-26                1.8515767679399999e-25           87                            1                           43                   -0.0072382790560599998 -0.0119290572842     -0.0308645742221            9.9999999999999994e-12              4.3999999999999998e-10       
                       6.3193324325099999e-25                            315                                          0.036763087060500001                  -3.00780313064e-15                   -2.9752748075500001e-26                5.0296155549599996e-25           -2.6451980410399999e-26              1.55423668165e-25             89                            1                           44                   -0.0072379371863200001 -0.0119284303668     -0.030864143535900002        9.9999999999999994e-12              4.5e-10                   
                       6.0156946242500003e-25                            322                                          0.035517280002400002                  -3.0629571313499999e-15                 -3.0363780825899999e-26                5.02948010573e-25             -2.6456632147e-26                 1.25078083999e-25             91                            1                           45                   -0.00723761094688    -0.0119278231284     -0.030863729675299999        9.9999999999999994e-12              4.6000000000000001e-10       
                       5.7071435589900004e-25                            329                                          0.034255201046899997                  -3.1060361340199999e-15                 -3.0855106525199997e-26                5.0293499942599996e-25           -2.64612648706e-26                9.4240621343700001e-26           93                            1                           46                   -0.0072373006257499999 -0.0119272359317     -0.030863332950399999        9.9999999999999994e-12              4.7000000000000003e-10       
                       5.3948955816499999e-25                            336                                          0.032982429163000003                  -3.13687121707e-15                   -3.1224797734600002e-26                5.0292252960900001e-25           -2.6465878312700002e-26              6.3032906868300001e-26           95                            1                           47                   -0.0072370064481200001 -0.0119266690602     -0.030862953603900001        9.9999999999999994e-12              4.8e-10                   
                       5.0801815251799997e-25                            343                                          0.031704621181899997                  -3.1553416344200001e-15                 -3.14714056472e-26                  5.0291060653700002e-25           -2.6470472280899998e-26              3.1578018261299998e-26           97                            1                           48                   -0.0072367285754700002 -0.0119261227173     -0.0308625918095            9.9999999999999994e-12              4.8999999999999996e-10       
                       4.7642418680900002e-25                            350                                          0.0304277118533                      -3.1613752835600001e-15                 -3.1593965708899999e-26                5.0289923346800004e-25           -2.6475046659599998e-26             -5.0825164010599996e-40           99                            1                           49                   -0.0072364671049300004 -0.0119255970253     -0.0308622476721            9.9999999999999994e-12              5.0000000000000003e-10       
                       4.4483218545699998e-25                            357                                          0.029157542621599999                  -3.15494898404e-15                   -3.1592001352000002e-26                5.0288841148999999e-25           -2.6479601410599998e-26             -3.1576624622700001e-26           101                           1                           50                   -0.0072362220689099997 -0.0119250920249     -0.0308619212264            9.9999999999999994e-12              5.1e-10                   
                       4.1336665962800001e-25                            364                                          0.0278997791032                      -3.13608856557e-15                   -3.1465525829000001e-26                5.0287813951500003e-25           -2.6484136573099998e-26             -6.3027343314200001e-26           103                           1                           51                   -0.0072359934349500001 -0.0119246076753     -0.030861612437700001        9.9999999999999994e-12              5.1999999999999996e-10       