# ODT 1.0
# Table Start
# Title: mmArchive Data Table, Wed Nov 09 21:26:47 UTC 2022
# Columns: {Oxs_RungeKuttaEvolve:evolver:Total energy} {Oxs_RungeKuttaEvolve:evolver:Energy calc count} {Oxs_RungeKuttaEvolve:evolver:Max dm/dt} Oxs_RungeKuttaEvolve:evolver:dE/dt {Oxs_RungeKuttaEvolve:evolver:Delta E} Oxs_UniformExchange:exchange:Energy {Oxs_UniformExchange:exchange:Max Spin Ang} {Oxs_UniformExchange:exchange:Stage Max Spin Ang} {Oxs_UniformExchange:exchange:Run Max Spin Ang} Oxs_Demag:demag:Energy Oxs_FixedZeeman:zeeman:Energy Oxs_TimeDriver::Iteration {Oxs_TimeDriver::Stage iteration} Oxs_TimeDriver::Stage Oxs_TimeDriver::mx   Oxs_TimeDriver::my   Oxs_TimeDriver::mz   {Oxs_TimeDriver::Last time step} {Oxs_TimeDriver::Simulation time}
# Units:                        J                                             {}                                         deg/ns                                 J/s                                   J                                     J                                      deg                                            deg                                              deg                                 J                          J                          {}                            {}                          {}                   {}                   {}                   {}                          s                                 s                
                       1.7655116584499999e-18                            55                                           3.8367381079900001e-10                  -8.5116811320599994e-34                  2.31921148952e-35                    1.36567757419e-18                       57.026261861499997                             57.026261861499997                               57.026261861499997                  3.99834084264e-19         0                           7                             7                           0                     1.1641532182699999e-16 -7.1304384618999997e-17  0.022938025500799999        1.0192948872e-12                 9.9999999999999994e-12       
                       1.7655116584499999e-18                            104                                          4.7445967014599998e-10                  -1.2911935388799999e-33                  1.5006662579299999e-35                  1.36567757419e-18                       57.026261861499997                             57.026261861499997                               57.026261861499997                  3.99834084264e-19         0                           14                            6                           1                     1.62981450558e-16   -7.1304384618999997e-17  0.022938025500799999        1.8526548596999999e-12              1.9999999999999999e-11       
                       1.7655116584499999e-18                            159                                          3.0002550224900003e-10                  -5.2405310453300004e-34                 -8.9244167611499997e-36                  1.36567757419e-18                       57.026261861499997                             57.026261861499997                               57.026261861499997                  3.99834084264e-19         0                           21                            6                           2                     6.9849193096199996e-17 -8.0035533755999995e-17  0.022938025500799999        1.3537024184100001e-12              3e-11                     
                       1.7655116584499999e-18                            220                                          3.4877021907800001e-10                  -7.1663598311399997e-34                  2.6147972675999999e-36                  1.36567757419e-18                       57.026261861499997                             57.026261861499997                               57.026261861499997                  3.99834084264e-19         0                           31                            9                           3                     1.1641532182699999e-16 -8.0035533755999995e-17  0.022938025500799999        1.61879633268e-12                3.9999999999999998e-11       
                       1.7655116584499999e-18                            275                                          3.0846691123600001e-10                  -5.62195031019e-34                    8.9471541286899998e-35                  1.36567757419e-18                       57.026261861499997                             57.026261861499997                               57.026261861499997                  3.99834084264e-19         0                           39                            7                           4                     9.3132257461499998e-17 -8.0035533755999995e-17  0.022938025500799999        1.25428714686e-12                5.0000000000000002e-11       
                       1.7655116584499999e-18                            336                                          3.2475038576299998e-10                  -5.9579328989099997e-34                  3.3651303965599999e-35                  1.36567757419e-18                       57.026261861499997                             57.026261861499997                               57.026261861499997                  3.99834084264e-19         0                           49                            9                           5                     2.32830643654e-17   -6.2573235481999999e-17  0.022938025500799999        1.4470558959799999e-12              6e-11                     
                       1.7655116584499999e-18                            391                                          3.7078887727300001e-10                  -7.8626453936800005e-34                  2.8478552849300001e-35                  1.36567757419e-18                       57.026261861499997                             57.026261861499997                               57.026261861499997                  3.99834084264e-19         0                           58                            8                           6                     9.3132257461499998e-17 -7.1304384618999997e-17  0.022938025500799999        1.3734244943e-12                 7.0000000000000004e-11       
                       1.7655116584499999e-18                            446                                          2.60693196646e-10                    -3.9710409532900003e-34                  1.7450929590300001e-35                  1.36567757419e-18                       57.026261861499997                             57.026261861499997                               57.026261861499997                  3.99834084264e-19         0                           66                            7                           7                     0                   -6.2573235481999999e-17  0.022938025500799999        5.9827166906600005e-13              7.9999999999999995e-11       
                       1.7655116584499999e-18                            555                                          4.7203115567099997e-10                  -1.2887912727799999e-33                  2.0236257114400001e-35                  1.36567757419e-18                       57.026261861499997                             57.026261861499997                               57.026261861499997                  3.99834084264e-19         0                           84                            17                          8                     2.32830643654e-17   -5.5297277867799997e-17  0.022938025500799999        8.5256454467799997e-13              8.9999999999999999e-11       
                       1.7655116584499999e-18                            604                                          3.0805001142399999e-10                  -5.5479849337400002e-34                 -5.6616045185400001e-35                  1.36567757419e-18                       57.026261861499997                             57.026261861499997                               57.026261861499997                  3.99834084264e-19         0                           91                            6                           9                     2.32830643654e-17   -3.7834979593800001e-17  0.022938025500799999        1.25901935531e-12                1e-10                     
                       1.7655116584499999e-18                            671                                          2.5862097176100002e-10                  -3.9554714508400003e-34                  6.9348971010200003e-36                  1.36567757419e-18                       57.026261861499997                             57.026261861499997                               57.026261861499997                  3.99834084264e-19         0                           102                           10                          10                    6.9849193096199996e-17 -3.9290171116600003e-17  0.022938025500799999        5.5228985592600004e-13              1.0999999999999999e-10       
                       1.7655116584499999e-18                            786                                          4.9694492778300002e-10                  -1.4904723115299999e-33                 -1.42108547152e-36                    1.36567757419e-18                       57.026261861499997                             57.026261861499997                               57.026261861499997                  3.99834084264e-19         0                           121                           18                          11                    2.32830643654e-17   -2.32830643654e-17    0.022938025500799999        3.0733604539199998e-13              1.2e-10                   
                       1.7655116584499999e-18                            835                                          3.4516606826799999e-10                  -6.9854063669299998e-34                 -5.9969806898199999e-35                  1.36567757419e-18                       57.026261861499997                             57.026261861499997                               57.026261861499997                  3.99834084264e-19         0                           128                           6                           12                    6.9849193096199996e-17 -1.7462298273999999e-17  0.022938025500799999        1.55853646226e-12                1.2999999999999999e-10       
                       1.7655116584499999e-18                            884                                          3.4663401061999999e-10                  -7.1218178160599999e-34                  5.6957105698499997e-35                  1.36567757419e-18                       57.026261861499997                             57.026261861499997                               57.026261861499997                  3.99834084264e-19         0                           136                           7                           13                    6.9849193096199996e-17 -4.3655745685100002e-17  0.022938025500799999        1.31080747441e-12                1.4000000000000001e-10       
                       1.7655116584499999e-18                            939                                          3.2085933609999998e-10                  -6.0905411248099997e-34                 -8.5265128291199996e-37                  1.36567757419e-18                       57.026261861499997                             57.026261861499997                               57.026261861499997                  3.99834084264e-19         0                           144                           7                           14                    4.6566128730799999e-17 -1.8917489796900001e-17  0.022938025500799999        1.27393737118e-12                1.5e-10                   
                       1.7655116584499999e-18                            1000                                         2.61688899271e-10                    -3.9891632291199996e-34                 -2.30784280575e-35                    1.36567757419e-18                       57.026261861499997                             57.026261861499997                               57.026261861499997                  3.99834084264e-19         0                           154                           9                           15                    4.6566128730799999e-17 -1.8917489796900001e-17  0.022938025500799999        6.1647502386300003e-13              1.5999999999999999e-10       
                       1.7655116584499999e-18                            1109                                         4.5975637804100002e-10                  -1.2718910566200001e-33                 -2.0406787371000001e-35                  1.36567757419e-18                       57.026261861499997                             57.026261861499997                               57.026261861499997                  3.99834084264e-19         0                           172                           17                          16                    1.3969838619199999e-16 -4.6566128730799999e-17  0.022938025500799999        4.8979552862300003e-13              1.7000000000000001e-10       
                       1.7655116584499999e-18                            1158                                         4.03783561181e-10                    -9.7654358248400007e-34                  2.2055246518e-35                     1.36567757419e-18                       57.026261861499997                             57.026261861499997                               57.026261861499997                  3.99834084264e-19         0                           179                           6                           17                    6.9849193096199996e-17 -3.6379788070899999e-17  0.022938025500799999        1.14439634729e-12                1.8e-10                   
                       1.7655116584499999e-18                            1207                                         3.7300576720200002e-10                  -8.4079820033799998e-34                  1.61435309565e-35                    1.36567757419e-18                       57.026261861499997                             57.026261861499997                               57.026261861499997                  3.99834084264e-19         0                           186                           6                           18                    6.9849193096199996e-17 -3.3469405025200002e-17  0.022938025500799999        1.3223214200700001e-12              1.8999999999999999e-10       
                       1.7655116584499999e-18                            1262                                         2.6046417552700001e-10                  -3.9578407777699996e-34                 -6.7359451350100003e-35                  1.36567757419e-18                       57.026261861499997                             57.026261861499997                               57.026261861499997                  3.99834084264e-19         0                           194                           7                           19                    1.3969838619199999e-16 -3.2014213502400001e-17  0.022938025500799999        6.0016841285800002e-13              2.0000000000000001e-10       
                       1.7655116584499999e-18                            1371                                         4.6802316290799999e-10                  -1.3204614800099999e-33                 -3.0922819860300002e-35                  1.36567757419e-18                       57.026261861499997                             57.026261861499997                               57.026261861499997                  3.99834084264e-19         0                           212                           17                          20                    1.1641532182699999e-16 -1.30967237055e-17    0.022938025500799999        8.4666779220200005e-13              2.1e-10                   
                       1.7655116584499999e-18                            1420                                         2.9329460012600002e-10                  -5.1645558174400002e-34                 -6.6961547417999997e-35                  1.36567757419e-18                       57.026261861499997                             57.026261861499997                               57.026261861499997                  3.99834084264e-19         0                           219                           6                           21                    2.32830643654e-17    0                    0.022938025500799999        1.3385205546100001e-12              2.1999999999999999e-10       
                       1.7655116584499999e-18                            1493                                         3.2725460374e-10                     -6.0283847801799998e-34                  8.8505203166299995e-35                  1.36567757419e-18                       57.026261861499997                             57.026261861499997                               57.026261861499997                  3.99834084264e-19         0                           231                           11                          22                    6.9849193096199996e-17  5.8207660913499999e-18  0.022938025500799999        1.4479671303499999e-12              2.3000000000000001e-10       
                       1.7655116584499999e-18                            1548                                         3.9900358670899998e-10                  -9.3713448676299992e-34                  3.8482994568800001e-35                  1.36567757419e-18                       57.026261861499997                             57.026261861499997                               57.026261861499997                  3.99834084264e-19         0                           240                           8                           23                    9.3132257461499998e-17  2.61934474111e-17    0.022938025500799999        8.9732547971699995e-13              2.4e-10                   
                       1.7655116584499999e-18                            1597                                         3.5536268502600001e-10                  -7.0718650289500004e-34                 -4.6611603465900001e-36                  1.36567757419e-18                       57.026261861499997                             57.026261861499997                               57.026261861499997                  3.99834084264e-19         0                           247                           6                           24                    9.3132257461499998e-17  3.0559021979599999e-17  0.022938025500799999        1.3916331936300001e-12              2.5000000000000002e-10       
                       1.7655116584499999e-18                            1652                                         3.0062950617199999e-10                  -5.0456126881500002e-34                  6.1277205532000002e-35                  1.36567757419e-18                       57.026261861499997                             57.026261861499997                               57.026261861499997                  3.99834084264e-19         0                           255                           7                           25                    6.9849193096199996e-17  3.6379788070899999e-17  0.022938025500799999        9.9130085839799995e-13              2.5999999999999998e-10       
                       1.7655116584499999e-18                            1719                                         3.1192275212200002e-10                  -5.6907425017400001e-34                  1.13686837722e-37                    1.36567757419e-18                       57.026261861499997                             57.026261861499997                               57.026261861499997                  3.99834084264e-19         0                           266                           10                          26                    1.3969838619199999e-16  4.3655745685100002e-17  0.022938025500799999        1.47708641445e-12                2.7e-10                   
                       1.7655116584499999e-18                            1780                                         3.4378823427599999e-10                  -6.9270654982699996e-34                 -5.1954884838799999e-35                  1.36567757419e-18                       57.026261861499997                             57.026261861499997                               57.026261861499997                  3.99834084264e-19         0                           276                           9                           27                    0                    4.6566128730799999e-17  0.022938025500799999        1.5775452509999999e-12              2.8000000000000002e-10       
                       1.7655116584499999e-18                            1829                                         3.98468630073e-10                    -9.1478408129899996e-34                  7.7761797001600004e-35                  1.36567757419e-18                       57.026261861499997                             57.026261861499997                               57.026261861499997                  3.99834084264e-19         0                           284                           7                           28                    4.6566128730799999e-17  4.3655745685100002e-17  0.022938025500799999        1.4436117878699999e-12              2.8999999999999998e-10       
                       1.7655116584499999e-18                            1878                                         3.3516998301099999e-10                  -6.44717162311e-34                   -5.4001247917799998e-36                  1.36567757419e-18                       57.026261861499997                             57.026261861499997                               57.026261861499997                  3.99834084264e-19         0                           291                           6                           29                    1.1641532182699999e-16  5.0931703299299998e-17  0.022938025500799999        1.44506107877e-12                3e-10                     
                       1.7655116584499999e-18                            1933                                         2.91350551188e-10                    -4.9951515448499997e-34                  2.2737367544300001e-37                  1.36567757419e-18                       57.026261861499997                             57.026261861499997                               57.026261861499997                  3.99834084264e-19         0                           300                           8                           30                    2.32830643654e-17    3.9290171116600003e-17  0.022938025500799999        7.0152960664499996e-13              3.1000000000000002e-10       
                       1.7655116584499999e-18                            2006                                         4.0570695570100002e-10                  -9.7606704272600009e-34                 -2.9501734388799998e-35                  1.36567757419e-18                       57.026261861499997                             57.026261861499997                               57.026261861499997                  3.99834084264e-19         0                           312                           11                          31                    9.3132257461499998e-17  4.6566128730799999e-17  0.022938025500799999        1.67630420612e-12                3.1999999999999998e-10       
                       1.7655116584499999e-18                            2055                                         3.7532134804e-10                     -8.3820737998499996e-34                  2.7910118660699999e-35                  1.36567757419e-18                       57.026261861499997                             57.026261861499997                               57.026261861499997                  3.99834084264e-19         0                           319                           6                           32                    0                    3.0559021979599999e-17  0.022938025500799999        1.3006056744600001e-12              3.3e-10                   
                       1.7655116584499999e-18                            2110                                         2.6255063921100002e-10                  -4.0577121817299998e-34                 -1.3187673175700001e-35                  1.36567757419e-18                       57.026261861499997                             57.026261861499997                               57.026261861499997                  3.99834084264e-19         0                           327                           7                           33                    6.9849193096199996e-17  3.7834979593800001e-17  0.022938025500799999        5.4121585290600001e-13              3.4000000000000001e-10       
                       1.7655116584499999e-18                            2219                                         4.6014510277800001e-10                  -1.23166298049e-33                   -5.5138116295e-36                     1.36567757419e-18                       57.026261861499997                             57.026261861499997                               57.026261861499997                  3.99834084264e-19         0                           345                           17                          34                   -2.32830643654e-17    2.7648638933899999e-17  0.022938025500799999        3.9556469743599998e-13              3.4999999999999998e-10       
                       1.7655116584499999e-18                            2268                                         3.5379155386599998e-10                  -7.5009849833099997e-34                 -5.6274984672200002e-36                  1.36567757419e-18                       57.026261861499997                             57.026261861499997                               57.026261861499997                  3.99834084264e-19         0                           352                           6                           35                    4.6566128730799999e-17  3.0559021979599999e-17  0.022938025500799999        1.1336182148500001e-12              3.6e-10                   
                       1.7655116584499999e-18                            2323                                         2.93945547637e-10                    -5.2164326973400003e-34                 -1.7678303265699999e-35                  1.36567757419e-18                       57.026261861499997                             57.026261861499997                               57.026261861499997                  3.99834084264e-19         0                           360                           7                           36                   -4.6566128730799999e-17  2.7648638933899999e-17  0.022938025500799999        1.1094184786400001e-12              3.7000000000000001e-10       
                       1.7655116584499999e-18                            2396                                         2.9684640777299999e-10                  -5.2533880234000004e-34                  4.02451405535e-35                    1.36567757419e-18                       57.026261861499997                             57.026261861499997                               57.026261861499997                  3.99834084264e-19         0                           372                           11                          37                    2.32830643654e-17    2.9103830456699997e-17  0.022938025500799999        1.1523457989000001e-12              3.7999999999999998e-10       
                       1.7655116584499999e-18                            2469                                         2.6909333406400002e-10                  -4.2118460298599996e-34                  1.0533085514899999e-34                  1.36567757419e-18                       57.026261861499997                             57.026261861499997                               57.026261861499997                  3.99834084264e-19         0                           384                           11                          38                   -2.32830643654e-17    2.7648638933899999e-17  0.022938025500799999        7.4988711864499996e-13              3.9e-10                   
                       1.7655116584499999e-18                            2566                                         4.0070252610599998e-10                  -9.4620089052400005e-34                  1.90425453184e-35                    1.36567757419e-18                       57.026261861499997                             57.026261861499997                               57.026261861499997                  3.99834084264e-19         0                           400                           15                          39                    6.9849193096199996e-17  0                    0.022938025500799999        1.14778463729e-12                4.0000000000000001e-10       
                       1.7655116584499999e-18                            2615                                         3.4816117910900002e-10                  -6.9156794356200003e-34                  2.7114310796599998e-35                  1.36567757419e-18                       57.026261861499997                             57.026261861499997                               57.026261861499997                  3.99834084264e-19         0                           407                           6                           40                   -2.32830643654e-17    1.01863406599e-17    0.022938025500799999        1.40402758667e-12                4.0999999999999998e-10       