# ODT 1.0
# Table Start
# Title: mmArchive Data Table, Wed Nov 09 21:26:28 UTC 2022
# Columns: {Oxs_RungeKuttaEvolve:evolver:Total energy} {Oxs_RungeKuttaEvolve:evolver:Energy calc count} {Oxs_RungeKuttaEvolve:evolver:Max dm/dt} Oxs_RungeKuttaEvolve:evolver:dE/dt {Oxs_RungeKuttaEvolve:evolver:Delta E} Oxs_UniformExchange:exchange:Energy {Oxs_UniformExchange:exchange:Max Spin Ang} {Oxs_UniformExchange:exchange:Stage Max Spin Ang} {Oxs_UniformExchange:exchange:Run Max Spin Ang} Oxs_Demag:demag:Energy Oxs_FixedZeeman:zeeman:Energy Oxs_TimeDriver::Iteration {Oxs_TimeDriver::Stage iteration} Oxs_TimeDriver::Stage Oxs_TimeDriver::mx   Oxs_TimeDriver::my   Oxs_TimeDriver::mz   {Oxs_TimeDriver::Last time step} {Oxs_TimeDriver::Simulation time}
# Units:                        J                                             {}                                         deg/ns                                 J/s                                   J                                     J                                      deg                                            deg                                              deg                                 J                          J                          {}                            {}                          {}                   {}                   {}                   {}                          s                                 s                
                       1.7655116584499999e-18                            61                                           4.1565614956399998e-10                  -1.02711721081e-33                    2.67164068646e-36                    1.36567757419e-18                       57.026261861599998                             57.026261861599998                               57.026261861599998                  3.99834084264e-19         0                           8                             8                           0                     4.8195943236399998e-15 -1.07858795673e-14    0.022938025500799999        6.58545707532e-13                9.9999999999999994e-12       
                       1.7655116584499999e-18                            110                                          3.9829313408599999e-10                  -9.1350505391100001e-34                  4.20072865381e-35                    1.36567757419e-18                       57.026261861599998                             57.026261861599998                               57.026261861599998                  3.99834084264e-19         0                           15                            6                           1                     5.2154064178499998e-15 -1.00990291685e-14    0.022938025500799999        1.28911171931e-12                1.9999999999999999e-11       
                       1.7655116584499999e-18                            159                                          3.5309060905400001e-10                  -7.3534396194199997e-34                 -8.5265128291200006e-36                  1.36567757419e-18                       57.026261861599998                             57.026261861599998                               57.026261861599998                  3.99834084264e-19         0                           22                            6                           2                     6.1234459280999998e-15 -9.3830749392500003e-15  0.022938025500799999        1.35880033981e-12                3e-11                     
                       1.7655116584499999e-18                            214                                          3.0318667935300002e-10                  -5.1719592254900002e-34                  5.2921222959400002e-35                  1.36567757419e-18                       57.026261861499997                             57.026261861599998                               57.026261861599998                  3.99834084264e-19         0                           30                            7                           3                     6.7753717303300002e-15 -8.6263753473800001e-15  0.022938025500799999        1.07586994815e-12                3.9999999999999998e-11       
                       1.7655116584499999e-18                            275                                          3.1572526830700001e-10                  -5.8659847449099999e-34                  2.5181634555299998e-35                  1.36567757419e-18                       57.026261861499997                             57.026261861499997                               57.026261861599998                  3.99834084264e-19         0                           40                            9                           4                     7.2410330176400006e-15 -7.8798620961600001e-15  0.022938025500799999        1.47187157706e-12                5.0000000000000002e-11       
                       1.7655116584499999e-18                            336                                          2.6872776549699998e-10                  -3.8408786718999999e-34                  7.9808160080599999e-35                  1.36567757419e-18                       57.026261861499997                             57.026261861499997                               57.026261861599998                  3.99834084264e-19         0                           50                            9                           5                     7.7299773693100006e-15 -7.0853275246899997e-15  0.022938025500799999        6.22565231133e-13                6e-11                     
                       1.7655116584499999e-18                            427                                          3.7517117668199999e-10                  -8.2082545943400008e-34                 -1.7053025658199999e-37                  1.36567757419e-18                       57.026261861499997                             57.026261861599998                               57.026261861599998                  3.99834084264e-19         0                           65                            14                          6                     8.0326572060600006e-15 -6.2791514210400003e-15  0.022938025500799999        5.1987914354699997e-13              7.0000000000000004e-11       
                       1.7655116584499999e-18                            482                                          2.6267100631100001e-10                  -3.8119488861200002e-34                  5.6843418860800003e-37                  1.36567757419e-18                       57.026261861499997                             57.026261861499997                               57.026261861599998                  3.99834084264e-19         0                           73                            7                           7                     8.3353370428100007e-15 -5.4627889767300003e-15  0.022938025500799999        5.68695909205e-13                7.9999999999999995e-11       
                       1.7655116584499999e-18                            585                                          4.54178178423e-10                    -1.18787663539e-33                   -5.6559201766499996e-35                  1.36567757419e-18                       57.026261861499997                             57.026261861599998                               57.026261861599998                  3.99834084264e-19         0                           90                            16                          8                     8.5681676864599995e-15 -4.6391505747999997e-15  0.022938025500799999        1.1228225755999999e-12              8.9999999999999999e-11       
                       1.7655116584499999e-18                            634                                          3.9342377652900002e-10                  -8.9429442692999999e-34                 -6.9519501266800003e-35                  1.36567757419e-18                       57.026261861499997                             57.026261861499997                               57.026261861599998                  3.99834084264e-19         0                           97                            6                           9                     8.8009983301199995e-15 -3.8431608118100001e-15  0.022938025500799999        1.1351651708599999e-12              1e-10                     
                       1.7655116584499999e-18                            683                                          3.44964157122e-10                    -6.9220123256100001e-34                 -2.5011104298800002e-35                  1.36567757419e-18                       57.026261861599998                             57.026261861599998                               57.026261861599998                  3.99834084264e-19         0                           104                           6                           10                    8.7544322013900007e-15 -3.0588125809999999e-15  0.022938025500799999        1.4825100367e-12                 1.0999999999999999e-10       
                       1.7655116584499999e-18                            732                                          3.6193456238800002e-10                  -7.5941940891200001e-34                  2.00657268579e-35                    1.36567757419e-18                       57.026261861499997                             57.026261861599998                               57.026261861599998                  3.99834084264e-19         0                           112                           7                           11                    8.7078660726500007e-15 -2.2817403078100001e-15  0.022938025500799999        1.3820608150800001e-12              1.2e-10                   
                       1.7655116584499999e-18                            787                                          3.2296988616699998e-10                  -5.8893536124899997e-34                 -1.3983481039799999e-35                  1.36567757419e-18                       57.026261861499997                             57.026261861599998                               57.026261861599998                  3.99834084264e-19         0                           120                           7                           12                    8.6147338151899999e-15 -1.50466803461e-15    0.022938025500799999        7.5916655768499995e-13              1.2999999999999999e-10       
                       1.7655116584499999e-18                            842                                          4.1597886270699998e-10                  -9.7263262158899999e-34                  4.7464254748799998e-35                  1.36567757419e-18                       57.026261861499997                             57.026261861599998                               57.026261861599998                  3.99834084264e-19         0                           129                           8                           13                    8.5216015577300007e-15 -7.6543074101200003e-16  0.022938025500799999        1.63223953092e-12                1.4000000000000001e-10       
                       1.7655116584499999e-18                            891                                          4.0931841771999998e-10                  -9.5622562741000005e-34                 -6.2243543652599995e-35                  1.36567757419e-18                       57.026261861499997                             57.026261861499997                               57.026261861599998                  3.99834084264e-19         0                           136                           6                           14                    8.2654878497099995e-15 -7.2759576141799999e-17  0.022938025500799999        1.3034188322100001e-12              1.5e-10                   
                       1.7655116584499999e-18                            940                                          4.0524695782899999e-10                  -9.2929059929399999e-34                  6.4858340920200002e-35                  1.36567757419e-18                       57.026261861499997                             57.026261861499997                               57.026261861599998                  3.99834084264e-19         0                           143                           6                           15                    8.1025063991500006e-15  6.11180439591e-16    0.022938025500799999        1.2957779376699999e-12              1.5999999999999999e-10       
                       1.7655116584499999e-18                            989                                          3.4563457691900002e-10                  -6.7383942296000004e-34                  4.5474735088599999e-35                  1.36567757419e-18                       57.026261861499997                             57.026261861499997                               57.026261861599998                  3.99834084264e-19         0                           150                           6                           16                    7.8929588198699995e-15  1.24709913507e-15    0.022938025500799999        1.3101660443600001e-12              1.7000000000000001e-10       
                       1.7655116584499999e-18                            1038                                         3.5774004147399999e-10                  -6.9923566415300002e-34                  9.6065377874799997e-36                  1.36567757419e-18                       57.026261861499997                             57.026261861499997                               57.026261861599998                  3.99834084264e-19         0                           158                           7                           17                    7.5204297900199998e-15  1.8379068933400001e-15  0.022938025500799999        1.32530941877e-12                1.8e-10                   
                       1.7655116584499999e-18                            1093                                         3.0848308558000002e-10                  -5.4717300410700001e-34                  2.1543655748199999e-35                  1.36567757419e-18                       57.026261861499997                             57.026261861499997                               57.026261861599998                  3.99834084264e-19         0                           166                           7                           18                    7.1944668889000006e-15  2.3923348635400002e-15  0.022938025500799999        9.1208696729900007e-13              1.8999999999999999e-10       
                       1.7655116584499999e-18                            1160                                         2.6505762620899998e-10                  -3.8121740501899998e-34                 -4.9567461246600004e-35                  1.36567757419e-18                       57.026261861499997                             57.026261861499997                               57.026261861599998                  3.99834084264e-19         0                           177                           10                          19                    6.8219378590599998e-15  2.9045622795800002e-15  0.022938025500799999        5.8978736674499997e-13              2.0000000000000001e-10       
                       1.7655116584499999e-18                            1263                                         4.24216441169e-10                    -9.9993081417699994e-34                 -3.1434410629999999e-35                  1.36567757419e-18                       57.026261861499997                             57.026261861499997                               57.026261861599998                  3.99834084264e-19         0                           194                           16                          20                    6.4494088292100002e-15  3.3731339499400002e-15  0.022938025500799999        7.3476152433600001e-13              2.1e-10                   
                       1.7655116584499999e-18                            1312                                         4.0499843729e-10                     -9.0421886665600008e-34                  4.4337866711400002e-36                  1.36567757419e-18                       57.026261861499997                             57.026261861499997                               57.026261861599998                  3.99834084264e-19         0                           201                           6                           21                    5.8440491557100002e-15  3.77767719328e-15    0.022938025500799999        1.2652704909000001e-12              2.1999999999999999e-10       
                       1.7655116584499999e-18                            1361                                         3.7770627270899997e-10                  -7.8106853163000008e-34                 -1.1027623259e-35                     1.36567757419e-18                       57.026261861499997                             57.026261861499997                               57.026261861599998                  3.99834084264e-19         0                           208                           6                           22                    5.4482370615000002e-15  4.1516614146499996e-15  0.022938025500799999        1.2774420721499999e-12              2.3000000000000001e-10       
                       1.7655116584499999e-18                            1416                                         2.6989729315699999e-10                  -3.9607150004999997e-34                  3.1150193535699998e-35                  1.36567757419e-18                       57.026261861499997                             57.026261861499997                               57.026261861599998                  3.99834084264e-19         0                           216                           7                           23                    5.0291419029200002e-15  4.4688931666299998e-15  0.022938025500799999        5.3705927407099996e-13              2.4e-10                   
                       1.7655116584499999e-18                            1513                                         3.7834932467700002e-10                  -8.3487178135799994e-34                 -3.01838554151e-35                    1.36567757419e-18                       57.026261861499997                             57.026261861499997                               57.026261861599998                  3.99834084264e-19         0                           232                           15                          24                    4.5169144868899997e-15  4.7220964916100002e-15  0.022938025500799999        6.6160901919500003e-13              2.5000000000000002e-10       
                       1.7655116584499999e-18                            1568                                         2.71488397424e-10                    -3.9827659038500002e-34                 -3.3992364478799999e-35                  1.36567757419e-18                       57.026261861499997                             57.026261861499997                               57.026261861599998                  3.99834084264e-19         0                           240                           7                           25                    3.9814040064799997e-15  4.9491063691700003e-15  0.022938025500799999        5.0601095562299995e-13              2.5999999999999998e-10       
                       1.7655116584499999e-18                            1665                                         3.6027539768599998e-10                  -7.4849282513800003e-34                 -9.9475983006399996e-36                  1.36567757419e-18                       57.026261861499997                             57.026261861499997                               57.026261861599998                  3.99834084264e-19         0                           256                           15                          26                    3.5390257835400001e-15  5.1280949264800001e-15  0.022938025500799999        3.7360368552400002e-13              2.7e-10                   
                       1.7655116584499999e-18                            1720                                         3.19807630595e-10                    -6.0505400244999999e-34                  2.5011104298800002e-35                  1.36567757419e-18                       57.026261861499997                             57.026261861499997                               57.026261861599998                  3.99834084264e-19         0                           264                           7                           27                    2.9802322387700001e-15  5.2663381211499997e-15  0.022938025500799999        7.6554923884200004e-13              2.8000000000000002e-10       
                       1.7655116584499999e-18                            1781                                         2.56728754691e-10                    -3.8788540871000002e-34                 -1.4154011296300001e-35                  1.36567757419e-18                       57.026261861499997                             57.026261861499997                               57.026261861599998                  3.99834084264e-19         0                           274                           9                           28                    2.5145709514600001e-15  5.3652911447e-15     0.022938025500799999        6.9417485933599997e-13              2.8999999999999998e-10       
                       1.7655116584499999e-18                            1896                                         5.1395541329099998e-10                  -1.5727833779700001e-33                  8.62883098307e-35                    1.36567757419e-18                       57.026261861499997                             57.026261861499997                               57.026261861599998                  3.99834084264e-19         0                           293                           18                          29                    2.0954757928800001e-15  5.4162228479999999e-15  0.022938025500799999        8.8958246541800001e-13              3e-10                     
                       1.7655116584499999e-18                            1945                                         3.5560026368800003e-10                  -7.4674641087699997e-34                  5.4171778174400005e-35                  1.36567757419e-18                       57.026261861499997                             57.026261861499997                               57.026261861599998                  3.99834084264e-19         0                           300                           6                           30                    1.6065314412100001e-15  5.4365955293200004e-15  0.022938025500799999        1.63420904224e-12                3.1000000000000002e-10       
                       1.7655116584499999e-18                            2000                                         3.0571328803999998e-10                  -5.1998252336600001e-34                  6.80984157952e-35                    1.36567757419e-18                       57.026261861499997                             57.026261861499997                               57.026261861599998                  3.99834084264e-19         0                           308                           7                           31                    1.11758708954e-15    5.4205884225700002e-15  0.022938025500799999        1.03831968509e-12                3.1999999999999998e-10       
                       1.7655116584499999e-18                            2067                                         2.55076019972e-10                    -3.7901281007200002e-34                 -1.49498191604e-35                    1.36567757419e-18                       57.026261861499997                             57.026261861499997                               57.026261861599998                  3.99834084264e-19         0                           319                           10                          32                    7.2177499532699998e-16  5.34055288881e-15    0.022938025500799999        7.2461194970599999e-13              3.3e-10                   
                       1.7655116584499999e-18                            2188                                         5.2920440026799995e-10                  -1.64762150044e-33                    1.5120349417e-35                     1.36567757419e-18                       57.026261861499997                             57.026261861499997                               57.026261861599998                  3.99834084264e-19         0                           339                           19                          33                    1.3969838619199999e-16  5.2648829296200001e-15  0.022938025500799999        4.1287736008100001e-13              3.4000000000000001e-10       
                       1.7655116584499999e-18                            2237                                         3.7703967016399998e-10                  -8.2356811196900008e-34                  6.62794263917e-35                    1.36567757419e-18                       57.026261861499997                             57.026261861499997                               57.026261861599998                  3.99834084264e-19         0                           346                           6                           34                   -2.5611370801899998e-16  5.1368260756100003e-15  0.022938025500799999        1.6778541400500001e-12              3.4999999999999998e-10       
                       1.7655116584499999e-18                            2292                                         2.6535589523299999e-10                  -4.0050611173199997e-34                 -7.6624928624400001e-35                  1.36567757419e-18                       57.026261861499997                             57.026261861499997                               57.026261861599998                  3.99834084264e-19         0                           354                           7                           35                   -7.9162418842299997e-16  4.9578375182999998e-15  0.022938025500799999        5.2245388136199995e-13              3.6e-10                   
                       1.7655116584499999e-18                            2395                                         4.2363780547900002e-10                  -1.0301221236e-33                    -5.4001247917799998e-36                  1.36567757419e-18                       57.026261861499997                             57.026261861499997                               57.026261861599998                  3.99834084264e-19         0                           371                           16                          36                   -1.11758708954e-15    4.7992216423200001e-15  0.022938025500799999        6.7169134402699999e-13              3.7000000000000001e-10       
                       1.7655116584499999e-18                            2444                                         3.7854691988100002e-10                  -8.2877711719099993e-34                 -3.2628122426100002e-35                  1.36567757419e-18                       57.026261861499997                             57.026261861499997                               57.026261861599998                  3.99834084264e-19         0                           378                           6                           37                   -1.51339918375e-15    4.5722117647500004e-15  0.022938025500799999        1.29473563914e-12                3.7999999999999998e-10       
                       1.7655116584499999e-18                            2499                                         2.61140116971e-10                    -3.93516566952e-34                    1.1425527191e-35                     1.36567757419e-18                       57.026261861499997                             57.026261861499997                               57.026261861599998                  3.99834084264e-19         0                           386                           7                           38                   -1.6763806343100001e-15  4.3452018871900003e-15  0.022938025500799999        5.4039473166800004e-13              3.9e-10                   
                       1.7655116584499999e-18                            2608                                         4.6141482135800002e-10                  -1.25494539178e-33                   -2.6716406864600002e-35                  1.36567757419e-18                       57.026261861499997                             57.026261861499997                               57.026261861599998                  3.99834084264e-19         0                           404                           17                          39                   -2.0023435354200001e-15  4.0890881791699999e-15  0.022938025500799999        7.0924503545199995e-13              4.0000000000000001e-10       
                       1.7655116584499999e-18                            2657                                         3.4237838681799999e-10                  -6.5898695371399996e-34                  1.7507773009099999e-35                  1.36567757419e-18                       57.026261861499997                             57.026261861499997                               57.026261861599998                  3.99834084264e-19         0                           411                           6                           40                   -2.3981556296300001e-15  3.8242433220099996e-15  0.022938025500799999        1.1636971593000001e-12              4.0999999999999998e-10       