# ODT 1.0
# Table Start
# Title: mmArchive Data Table, Mon Nov 14 07:13:05 UTC 2022
# Columns: {Oxs_RungeKuttaEvolve:evolver:Total energy} {Oxs_RungeKuttaEvolve:evolver:Energy calc count} {Oxs_RungeKuttaEvolve:evolver:Max dm/dt} Oxs_RungeKuttaEvolve:evolver:dE/dt {Oxs_RungeKuttaEvolve:evolver:Delta E} Oxs_FixedZeeman:zeeman:Energy Oxs_TimeDriver::Iteration {Oxs_TimeDriver::Stage iteration} Oxs_TimeDriver::Stage Oxs_TimeDriver::mx   Oxs_TimeDriver::my   Oxs_TimeDriver::mz   {Oxs_TimeDriver::Last time step} {Oxs_TimeDriver::Simulation time}
# Units:                        J                                             {}                                         deg/ns                                 J/s                                   J                                  J                          {}                            {}                          {}                   {}                   {}                   {}                          s                                 s                
                       6.3456009641000001e-21                            31                                           5047.8707660099999                   -2.0237805377499998e-09                 -2.4344817514199998e-22               6.3456009641000001e-21         5                             5                           0                     0.00411803777996     0.089368952655600006 -0.168322293388             1.2032856430700001e-13              2.8000000000000002e-13       
                       5.7786222591199997e-21                            38                                           5035.4338686499996                   -2.0259159161000002e-09                 -5.6697870498200003e-22               5.7786222591199997e-21         7                             1                           1                     0.0054502674105100001  0.089124525989599995 -0.15328271613300001        2.8000000000000002e-13              5.6000000000000004e-13       
                       5.2111716468100002e-21                            45                                           5019.9871764899999                   -2.02715570694e-09                   -5.6745061230699996e-22               5.2111716468100002e-21         9                             1                           2                     0.0067931801895300004  0.088743977136400004 -0.138230621148             2.8000000000000002e-13              8.3999999999999995e-13       
                       4.6434960836500003e-21                            52                                           5001.5771389700003                   -2.0275274944900002e-09                 -5.6767556316399999e-22               4.6434960836500003e-21         11                            1                           3                     0.0081471492751100001  0.088227630379100003 -0.123172559157             2.8000000000000002e-13              1.1200000000000001e-12       
                       4.0758344918399998e-21                            59                                           4980.2586689600003                   -2.02706103949e-09                   -5.6766159180499996e-22               4.0758344918399998e-21         13                            1                           4                     0.00951251252453     0.087576161022600005 -0.10811486776699999        2.8000000000000002e-13              1.4000000000000001e-12       
                       3.50841718588e-21                              66                                           4956.0947485200004                   -2.02578802183e-09                   -5.6741730596299999e-22               3.50841718588e-21           15                            1                           5                     0.010889561603299999  0.086790591844099998 -0.093063656260199995        2.8000000000000002e-13              1.6799999999999999e-12       
                       2.9414653715100002e-21                            73                                           4966.6160383500001                   -2.0237417805700002e-09                 -5.6695181436999999e-22               2.9414653715100002e-21         17                            1                           6                     0.012278531430500001  0.085872288395899998 -0.078024792301500001        2.8000000000000002e-13              1.9600000000000001e-12       
                       2.3751907176199999e-21                            80                                           4989.5895201599997                   -2.0209570538199998e-09                 -5.6627465388699996e-22               2.3751907176199999e-21         19                            1                           7                     0.0136795901194      0.0848229532791     -0.063003890582600003        2.8000000000000002e-13              2.2400000000000001e-12       
                       1.80979500074e-21                              87                                           5009.6900648800001                   -2.0174697204800001e-09                 -5.6539571688100001e-22               1.80979500074e-21           21                            1                           8                     0.0150928295636      0.083644619510500007 -0.048006303391800002        2.8000000000000002e-13              2.5200000000000002e-12       
                       1.2454698213300001e-21                            94                                           5026.85803803                        -2.0133165457100002e-09                 -5.6432517940600003e-22               1.2454698213300001e-21         23                            1                           9                     0.016518256813599998  0.082339643103100005 -0.033037113089499998        2.8000000000000002e-13              2.8000000000000002e-12       
                       6.8239639072199997e-22                            101                                          5041.0420469600003                   -2.0085349314500002e-09                 -5.6307343061199998e-22               6.8239639072199997e-22         25                            1                           10                    0.0179557863708      0.080910694977299996 -0.018101126455200001        2.8000000000000002e-13              3.0799999999999998e-12       
                       1.2074538698699999e-22                            108                                          5052.1993118199998                   -2.00316267316e-09                   -5.6165100373500002e-22               1.2074538698699999e-22         27                            1                           11                    0.019405233514       0.079360752309399998 -0.0032028708657499999        2.8000000000000002e-13              3.3599999999999998e-12       
                      -4.3932312192600003e-22                            115                                          5060.2959777300002                   -1.9972377233e-09                    -5.6006850891299998e-22              -4.3932312192600003e-22         29                            1                           12                    0.020866308751100002  0.077693089411899993  0.0116534077449            2.8000000000000002e-13              3.6399999999999998e-12       
                      -9.9765968991699996e-22                            122                                          5065.3073639900003                   -1.9907979621099998e-09                 -5.5833656799100002e-22              -9.9765968991699996e-22         31                            1                           13                    0.022338613469900001  0.075911268227300002  0.026463745195599998        2.8000000000000002e-13              3.9200000000000003e-12       
                      -1.5541254412799999e-21                            129                                          5067.2181471200001                   -1.9838809758400001e-09                 -5.5646575136499999e-22              -1.5541254412799999e-21         33                            1                           14                    0.023821636838099999  0.074019128497       0.041224457694200002        2.8000000000000002e-13              4.1999999999999999e-12       
                      -2.10859195818e-21                              136                                          5066.0224748299997                   -1.9765238421000001e-09                 -5.5446651689999995e-22              -2.10859195818e-21           35                            1                           15                    0.0253147539777      0.072020777650000006  0.055932138851399998        2.8000000000000002e-13              4.4800000000000003e-12       
                      -2.6609411090200001e-21                            143                                          5061.7240098100001                   -1.9687629224199999e-09                 -5.5234915083899998e-22              -2.6609411090200001e-21         37                            1                           16                    0.026817225416400001  0.069920580435599997  0.070583655129500003        2.8000000000000002e-13              4.7599999999999999e-12       
                      -3.2110648196599999e-21                            150                                          5054.3359023200001                   -1.9606336613000002e-09                 -5.5012371063800001e-22              -3.2110648196599999e-21         39                            1                           17                    0.028328197792599999  0.067723148304999994  0.085176139772900006        2.8000000000000002e-13              5.0400000000000003e-12       
                      -3.75886478926e-21                              157                                          5043.8806922000003                   -1.9521703915799999e-09                 -5.4779996959699997e-22              -3.75886478926e-21           41                            1                           18                    0.029846705768400001  0.0654333285254      0.099706985270700002        2.8000000000000002e-13              5.3199999999999999e-12       
                      -4.3042521524500002e-21                            164                                          5030.39014167                        -1.9434061456699999e-09                 -5.4538736318900002e-22              -4.3042521524500002e-21         43                            1                           19                    0.031371675084000003  0.063056192994900007  0.114173834396             2.8000000000000002e-13              5.6000000000000004e-12       
                      -4.8471470894400003e-21                            171                                          5026.2916797500002                   -1.9343724723900001e-09                 -5.4289493699800003e-22              -4.8471470894400003e-21         45                            1                           20                    0.032901926664700001  0.060597026706399999  0.128574569863             2.8000000000000002e-13              5.88e-12                  
                      -5.38747838563e-21                              178                                          5040.5838693799997                   -1.9250992592299998e-09                 -5.40331296188e-22                -5.38747838563e-21           47                            1                           21                    0.034436181679300001  0.058061315798000002  0.14290730264599999        2.8000000000000002e-13              6.1599999999999996e-12       
                      -5.9251829421500003e-21                            185                                          5051.85070137                        -1.9156145602299999e-09                 -5.3770455652299996e-22              -5.9251829421500003e-21         49                            1                           22                    0.035973067430300001  0.055454735113800002  0.15717035899500001        2.8000000000000002e-13              6.44e-12                  
                      -6.4602052391500003e-21                            192                                          5060.0579949200001                   -1.9059444298199999e-09                 -5.3502229699299997e-22              -6.4602052391500003e-21         51                            1                           23                    0.037511123950600002  0.052783135192699997  0.1713622662               2.8000000000000002e-13              6.7199999999999996e-12       
                      -6.9924967533300006e-21                            199                                          5065.1807356199997                   -1.89611276313e-09                   -5.3229151417800004e-22              -6.9924967533300006e-21         53                            1                           24                    0.039048811170699999  0.050052528598200002  0.185481737141             2.8000000000000002e-13              7.0000000000000001e-12       
                      -7.52201533191e-21                              206                                          5067.2032608199997                   -1.8861411439800002e-09                 -5.2951857858300004e-22              -7.52201533191e-21           55                            1                           25                    0.040584516522100003  0.047269075501399999  0.19952765368100001        2.8000000000000002e-13              7.2799999999999997e-12       
                      -8.0487245251700002e-21                            213                                          5066.1193762299999                   -1.8760487015699999e-09                 -5.2670919325900001e-22              -8.0487245251700002e-21         57                            1                           26                    0.042116562838399998  0.044439068433800001  0.213499048961             2.8000000000000002e-13              7.5599999999999993e-12       
                      -8.5725928802800003e-21                            220                                          5061.9324021499997                   -1.86585197771e-09                   -5.2386835511200002e-22              -8.5725928802800003e-21         59                            1                           27                    0.043643216425599998  0.041568916134499999  0.22739508866800001        2.8000000000000002e-13              7.8400000000000005e-12       
                      -9.0935931996599999e-21                            227                                          5054.65514867                        -1.8555648062299999e-09                 -5.2100031938500002e-22              -9.0935931996599999e-21         61                            1                           28                    0.045162695175499999  0.038665126424800002  0.24121505136599999        2.8000000000000002e-13              8.1200000000000001e-12       
                      -9.6117017675400003e-21                            234                                          5044.3098202399997                   -1.8451982069400001e-09                 -5.1810856787800001e-22              -9.6117017675400003e-21         63                            1                           29                    0.046673176610300002  0.035734288064099999  0.25495830797199998        2.8000000000000002e-13              8.3999999999999998e-12       
                      -1.01268975491e-20                              241                                          5030.9278508300004                   -1.8347602962799999e-09                 -5.1519578153599998e-22              -1.01268975491e-20           65                            1                           30                    0.048172805758800001  0.0327830515511      0.26862430052000003        2.8000000000000002e-13              8.6799999999999994e-12       
                      -1.06391613672e-20                              248                                          5014.5496720399997                   -1.82425621724e-09                   -5.1226381807299996e-22              -1.06391613672e-20           67                            1                           31                    0.049659702777700002  0.0298181088638      0.282212520322             2.8000000000000002e-13              8.9600000000000006e-12       
                      -1.11484750625e-20                              255                                          4995.22441729                        -1.8136880910400001e-09                 -5.09313695332e-22                -1.11484750625e-20           69                            1                           32                    0.051131970250500001  0.026846172148399999  0.29572248568800003        2.8000000000000002e-13              9.2400000000000002e-12       
                      -1.1654820643600001e-20                            262                                          4973.0095660799998                   -1.80305499299e-09                   -5.0634558108900004e-22              -1.1654820643600001e-20         71                            1                           33                    0.052587700111600001  0.0238739513969      0.30915371937899999        2.8000000000000002e-13              9.5199999999999998e-12       
                      -1.21581794336e-20                              269                                          4947.9705330699999                   -1.7923529551000001e-09                 -5.03358789982e-22                -1.21581794336e-20           73                            1                           34                    0.0540249801621      0.0209081311777      0.32250572597499999        2.8000000000000002e-13              9.7999999999999994e-12       
                      -1.26585312218e-20                              276                                          4920.1802073500003                   -1.7815749973999999e-09                 -5.0035178821399997e-22              -1.26585312218e-20           75                            1                           35                    0.055441900160099998  0.017955346512200002  0.33577796937100002        2.8000000000000002e-13              1.0080000000000001e-11       
                      -1.31558534284e-20                              283                                          4889.71844788                        -1.7707111899799999e-09                 -4.9732220658400003e-22              -1.31558534284e-20           77                            1                           36                    0.056836557484400002  0.015022158015699999  0.34896985061899999        2.8000000000000002e-13              1.036e-11                 
                      -1.3650120290700001e-20                            290                                          4856.67154123                        -1.7597487472700001e-09                 -4.9426686234299996e-22              -1.3650120290700001e-20         79                            1                           37                    0.058207062386700002  0.0121150264516      0.36208068634399998        2.8000000000000002e-13              1.064e-11                 
                      -1.4141302080900001e-20                            297                                          4821.1316285299999                   -1.74867215553e-09                   -4.9118179021799999e-22              -1.4141302080900001e-20         81                            1                           38                    0.059551542860000001  0.0092402868681899994  0.37510968798900002        2.8000000000000002e-13              1.092e-11                 
                      -1.4629364363700001e-20                            304                                          4788.28271468                        -1.73746333404e-09                   -4.8806228282800004e-22              -1.4629364363700001e-20         83                            1                           39                    0.060868149162799999  0.0064041225166999996  0.38805594213              2.8000000000000002e-13              1.1200000000000001e-11       
                      -1.51142673043e-20                              311                                          4825.9110813300003                   -1.7261018300099999e-09                 -4.8490294054599996e-22              -1.51142673043e-20           85                            1                           40                    0.062155058046800001  0.0036125387657500001  0.40091839211500002        2.8000000000000002e-13              1.148e-11                 
                      -1.5595965035000001e-20                            318                                          4861.1308437300004                   -1.71456504643e-09                   -4.8169773070999997e-22              -1.5595965035000001e-20         87                            1                           41                    0.063410476744099997  0.00087133724885200001  0.41369582126799997        2.8000000000000002e-13              1.176e-11                 
                      -1.60744050909e-20                              325                                          4893.8452555100002                   -1.70282850148e-09                   -4.7844005587300003e-22              -1.60744050909e-20           89                            1                           42                    0.064632646774400004 -0.0018139095056800001  0.42638683791199999        2.8000000000000002e-13              1.204e-11                 
                      -1.6549527921499999e-20                            332                                          4923.96290666                        -1.6908661174299999e-09                 -4.7512283063199999e-22              -1.6549527921499999e-20         91                            1                           43                    0.065819847631599995 -0.0044378827016400002  0.43898986242400001        2.8000000000000002e-13              1.2319999999999999e-11       
                      -1.7021266487900001e-20                            339                                          4951.3983180599998                   -1.67865053646e-09                   -4.7173856635099997e-22              -1.7021266487900001e-20         93                            1                           44                    0.066970400412100006 -0.0069955408924800002  0.45150311653800002        2.8000000000000002e-13              1.26e-11                  
                      -1.7489545950800001e-20                            346                                          4976.0725109699997                   -1.6661534598800001e-09                 -4.6827946295800002e-22              -1.7489545950800001e-20         95                            1                           45                    0.068082671441799997 -0.0094821423216099997  0.46392461508400001        2.8000000000000002e-13              1.288e-11                 
                      -1.7954283457599999e-20                            353                                          4997.9135446199998                   -1.65334600703e-09                   -4.6473750677299996e-22              -1.7954283457599999e-20         97                            1                           46                    0.069155075954299997 -0.011893265722       0.47625216032500001        2.8000000000000002e-13              1.316e-11                 
                      -1.84153880308e-20                              360                                          5016.8570155099997                   -1.6401990892699999e-09                 -4.6110457322500001e-22              -1.84153880308e-20           99                            1                           47                    0.070186081865699995 -0.0142248293201      0.48848333901000002        2.8000000000000002e-13              1.3439999999999999e-11       
                      -1.88727605639e-20                              367                                          5032.8465118800004                   -1.6266837943700001e-09                 -4.5737253314100004e-22              -1.88727605639e-20           101                           1                           48                    0.071174213681499995 -0.016473107803999999  0.50061552225700001        2.8000000000000002e-13              1.3720000000000001e-11       
                      -1.93262939251e-20                              374                                          5045.8340177700002                   -1.61277177587e-09                   -4.53533361198e-22                -1.93262939251e-20           103                           1                           49                    0.072118056562699998 -0.0186347470344      0.51264586830600001        2.8000000000000002e-13              1.4e-11                   
                      -1.97758731702e-20                              381                                          5055.7802611699999                   -1.59843564228e-09                   -4.4957924504800002e-22              -1.97758731702e-20           105                           1                           50                    0.073016260565099994 -0.020706776301600002  0.52457132816600005        2.8000000000000002e-13              1.428e-11                 
                      -2.0221375863799999e-20                            388                                          5062.6550016700003                   -1.58364934026e-09                   -4.4550269358300003e-22              -2.0221375863799999e-20         107                           1                           51                    0.073867545055200004 -0.022686617960099999  0.53638865414000003        2.8000000000000002e-13              1.4559999999999999e-11       
                      -2.0662672506500001e-20                            395                                          5066.4372537899999                   -1.56838852642e-09                   -4.4129664275999996e-22              -2.0662672506500001e-20         109                           1                           52                    0.074670703292900001 -0.024572094304200001  0.54809441115099999        2.8000000000000002e-13              1.4840000000000001e-11       
                      -2.1099627063999999e-20                            402                                          5067.1154428299997                   -1.5526309222e-09                    -4.3695455746200001e-22              -2.1099627063999999e-20         111                           1                           53                    0.075424607158899995 -0.026361431586       0.55968499077199996        2.8000000000000002e-13              1.5119999999999999e-11       
                      -2.1532097591900001e-20                            409                                          5064.6874911499999                   -1.53635664664e-09                   -4.3247052788799996e-22              -2.1532097591900001e-20         113                           1                           54                    0.076128211994399994 -0.028053261112800001  0.57115662781400001        2.8000000000000002e-13              1.54e-11                  
                      -2.19599369509e-20                              416                                          5064.4129324300002                   -1.51954852214e-09                   -4.2783935905200003e-22              -2.19599369509e-20           115                           1                           55                    0.076780561506999995 -0.029646617402699998  0.58250541928800004        2.8000000000000002e-13              1.5680000000000001e-11       
                      -2.2382993603000001e-20                            423                                          5067.0495669499996                   -1.5021923487600001e-09                 -4.2305665209499998e-22              -2.2382993603000001e-20         117                           1                           56                    0.077380792688499997 -0.0311409334193      0.59372734551899997        2.8000000000000002e-13              1.5959999999999999e-11       
                      -2.2801112479299999e-20                            430                                          5066.5802626000004                   -1.48427714317e-09                   -4.18118876222e-22                -2.2801112479299999e-20         119                           1                           57                    0.077928140681200006 -0.032536032945699997  0.60481829317799995        2.8000000000000002e-13              1.624e-11                 
                      -2.3214135909500001e-20                            437                                          5063.0064571100002                   -1.46579533899e-09                   -4.1302343027399998e-22              -2.3214135909500001e-20         121                           1                           58                    0.078421943521699997 -0.033832120199399997  0.615774079935             2.8000000000000002e-13              1.6520000000000002e-11       
                      -2.3621904602599999e-20                            444                                          5056.3390885700001                   -1.44674294578e-09                   -4.0776869307999999e-22              -2.3621904602599999e-20         123                           1                           59                    0.078861646685300005 -0.035029766828300002  0.62659048045800003        2.8000000000000002e-13              1.68e-11                  