# ODT 1.0
# Table Start
# Title: mmArchive Data Table, Wed Nov 09 22:46:57 UTC 2022
# Columns: {Oxs_CGEvolve:evolver:Max mxHxm} {Oxs_CGEvolve:evolver:Total energy} {Oxs_CGEvolve:evolver:Delta E} {Oxs_CGEvolve:evolver:Bracket count} {Oxs_CGEvolve:evolver:Line min count} {Oxs_CGEvolve:evolver:Conjugate cycle count} {Oxs_CGEvolve:evolver:Cycle count} {Oxs_CGEvolve:evolver:Cycle sub count} {Oxs_CGEvolve:evolver:Energy calc count} Oxs_FixedZeeman:zeeman:Energy Oxs_UniformExchange:exchange:Energy {Oxs_UniformExchange:exchange:Max Spin Ang} {Oxs_UniformExchange:exchange:Stage Max Spin Ang} {Oxs_UniformExchange:exchange:Run Max Spin Ang} Oxs_UniaxialAnisotropy:uniaxialanisotropy:Energy Oxs_DMI_Cnv_z:dmi:Energy Oxs_MinDriver::Iteration {Oxs_MinDriver::Stage iteration} Oxs_MinDriver::Stage Oxs_MinDriver::mx    Oxs_MinDriver::my    Oxs_MinDriver::mz   
# Units:                 A/m                                 J                                J                                 {}                                   {}                                        {}                                      {}                                   {}                                      {}                                  J                                J                                      deg                                            deg                                              deg                                              J                                    J                        {}                           {}                         {}                 {}                   {}                   {}           
                  0.096468669200300006              -1.8050859189100002e-17              -4.9303806576300002e-32               295                                  216                                       16                                      263                                  235                                     512                               -9.2135815727700001e-18              8.26840607066e-18                       37.546614101499998                             180                                              180                                              5.1395339684e-18                    -2.2245217655399999e-17      483                          483                        0                    5.6950491191600005e-16  2.5399706580400001e-17  0.66653956858499996
# Table End
